 *******************************************************************************
 ** Site#: 24072        For non-commercial use only    Version 19.090L 64BITS **
 *******************************************************************************
 ** Cite this program as: MOPAC2016, Version: 19.090L, James J. P. Stewart,   **
 ** Stewart Computational Chemistry, web-site: HTTP://OpenMOPAC.net.          **
 *******************************************************************************
 **                                                                           **
 **                                MOPAC2016                                  **
 **                                                                           **
 *******************************************************************************

                              PM6 CALCULATION RESULTS

 *******************************************************************************
 *  CALCULATION DONE:                                Sat Jan  4 20:13:00 2020  *
 *  PM6        - The PM6 Hamiltonian to be used
 *  GEO-OK     - OVERRIDE INTERATOMIC DISTANCE AND OTHER SAFETY CHECKS
 *
 *
 *
 *                 CHARGE ON SYSTEM = 0
 *
 *
 *
 *  1SCF       - DO 1 SCF AND THEN STOP 
 *  T=         - A TIME OF 172800.0 SECONDS REQUESTED
 *  DUMP=N     - RESTART FILE WRITTEN EVERY  7200.000 SECONDS
 *  RELSCF     - DEFAULT SCF CRITERION MULTIPLIED BY 0.0010
 *              (DEFAULT SCF CRITERION = 0.00010)
 *  GRADIENTS  - ALL GRADIENTS TO BE PRINTED
 *******************************************************************************
PM6 grad 1scf relscf=0.001 geo-ok charge=0
 handlarbar template for mopac
 calculate energy and gradients
   ATOM   CHEMICAL          X               Y               Z
  NUMBER   SYMBOL      (ANGSTROMS)     (ANGSTROMS)     (ANGSTROMS)
 
     1       C          0.00000000  *   0.00000000  *   0.00000000  *
     2       C          0.00000000  *   0.00000000  *   3.12137000  *
     3       H          1.08983000  *   0.00000000  *   3.05497000  *
     4       C         -0.64623700  *   0.82329600  *   3.94506000  *
     5       C         -0.68754500  *  -0.99849900  *   2.23721000  *
     6       C          0.05068700  *  -1.22538000  *   0.90913400  *
     7       H          0.43133900  *   0.88059800  *   0.49161100  *
     8       H         -1.72076000  *   0.86100500  *   4.03911000  *
     9       H         -0.14427700  *   1.52738000  *   4.59114000  *
    10       H         -1.73317000  *  -0.68974200  *   2.03294000  *
    11       H         -0.76715200  *  -1.96130000  *   2.78630000  *
    12       H         -0.39789800  *  -2.09422000  *   0.38784300  *
    13       H          1.10480000  *  -1.50377000  *   1.10546000  *
    14       H          0.55664400  *  -0.16812500  *  -0.92799900  *
    15       H         -1.02984000  *   0.25700600  *  -0.27287700  *
 


          CARTESIAN COORDINATES 

    NO.       ATOM           X           Y           Z

     1         C          0.0000      0.0000      0.0000
     2         C          0.0000      0.0000      3.1214
     3         H          1.0898      0.0000      3.0550
     4         C         -0.6462      0.8233      3.9451
     5         C         -0.6875     -0.9985      2.2372
     6         C          0.0507     -1.2254      0.9091
     7         H          0.4313      0.8806      0.4916
     8         H         -1.7208      0.8610      4.0391
     9         H         -0.1443      1.5274      4.5911
    10         H         -1.7332     -0.6897      2.0329
    11         H         -0.7672     -1.9613      2.7863
    12         H         -0.3979     -2.0942      0.3878
    13         H          1.1048     -1.5038      1.1055
    14         H          0.5566     -0.1681     -0.9280
    15         H         -1.0298      0.2570     -0.2729

 General Reference for PM6:
 "Optimization of Parameters for Semiempirical Methods V: Modification of NDDO Approximations
 and Application to 70 Elements", J. J. P. Stewart, J. Mol. Mod., 13, 1173-1213 (2007)
 URL: http://www.springerlink.com/content/ar33482301010477/fulltext.pdf

           Empirical Formula: C5 H10  =    15 atoms



      MOLECULAR POINT GROUP   :   C1  


      RHF CALCULATION, NO. OF DOUBLY OCCUPIED LEVELS = 15

  SCF CRITERION =    0.1000E-06

 -------------------------------------------------------------------------------
 PM6 grad 1scf relscf=0.001 geo-ok charge=0
 handlarbar template for mopac
 calculate energy and gradients


     1SCF WAS SPECIFIED, SO BFGS WAS NOT USED                 
     SCF FIELD WAS ACHIEVED                                   


                              PM6 CALCULATION
                                                       MOPAC2016 (Version: 19.090L)
                                                       Sat Jan  4 20:13:00 2020




          FINAL HEAT OF FORMATION =         -3.48578 KCAL/MOL =     -14.58449 KJ/MOL


          TOTAL ENERGY            =       -748.27471 EV
          ELECTRONIC ENERGY       =      -3107.41351 EV  POINT GROUP:     C1  
          CORE-CORE REPULSION     =       2359.13880 EV
          COSMO AREA              =        129.58 SQUARE ANGSTROMS
          COSMO VOLUME            =        118.05 CUBIC ANGSTROMS

          GRADIENT NORM           =          0.44581 = 0.11511 PER ATOM
          IONIZATION POTENTIAL    =          9.965084 EV
          HOMO LUMO ENERGIES (EV) =         -9.965  1.362
          NO. OF FILLED LEVELS    =         15
          MOLECULAR WEIGHT        =         70.1340

          MOLECULAR DIMENSIONS (Angstroms)

            Atom       Atom       Distance
            H    14    H     9     5.81609
            H    11    H     7     3.54229
            H     3    H    15     2.72646


          SCF CALCULATIONS        =          1
 
          WALL-CLOCK TIME         =          0.070 SECONDS
          COMPUTATION TIME        =          0.166 SECONDS

          LARGEST ATOMIC GRADIENTS

          Atom     Label                     Cartesian Gradients           Cartesian Coordinates       |Gradient|
                                           X          Y          Z        X          Y          Z

             4       C                  -0.087      0.206      0.204   -0.64624    0.82330    3.94506      0.303
             2       C                   0.181     -0.087     -0.098    0.00000    0.00000    3.12137      0.223
             5       C                  -0.145     -0.103     -0.022   -0.68755   -0.99850    2.23721      0.179
             6       C                   0.073     -0.081      0.007    0.05069   -1.22538    0.90913      0.109
             1       C                  -0.005      0.076     -0.064    0.00000    0.00000    0.00000      0.099
             9       H                  -0.016     -0.023     -0.023   -0.14428    1.52738    4.59114      0.036
             7       H                  -0.015     -0.021     -0.014    0.43134    0.88060    0.49161      0.029
            11       H                  -0.001      0.018      0.005   -0.76715   -1.96130    2.78630      0.018
            14       H                   0.008     -0.000      0.015    0.55664   -0.16812   -0.92800      0.017
            10       H                   0.013      0.003     -0.001   -1.73317   -0.68974    2.03294      0.014



       FINAL  POINT  AND  DERIVATIVES

   PARAMETER     ATOM    TYPE            VALUE       GRADIENT
      1          1  C    CARTESIAN X     0.000000    -0.005446  KCAL/ANGSTROM
      2          1  C    CARTESIAN Y     0.000000     0.076004  KCAL/ANGSTROM
      3          1  C    CARTESIAN Z     0.000000    -0.063763  KCAL/ANGSTROM
      4          2  C    CARTESIAN X     0.000000     0.180621  KCAL/ANGSTROM
      5          2  C    CARTESIAN Y     0.000000    -0.086886  KCAL/ANGSTROM
      6          2  C    CARTESIAN Z     3.121370    -0.097909  KCAL/ANGSTROM
      7          3  H    CARTESIAN X     1.089830    -0.007366  KCAL/ANGSTROM
      8          3  H    CARTESIAN Y     0.000000     0.003162  KCAL/ANGSTROM
      9          3  H    CARTESIAN Z     3.054970     0.004012  KCAL/ANGSTROM
     10          4  C    CARTESIAN X    -0.646237    -0.086606  KCAL/ANGSTROM
     11          4  C    CARTESIAN Y     0.823296     0.206359  KCAL/ANGSTROM
     12          4  C    CARTESIAN Z     3.945060     0.203586  KCAL/ANGSTROM
     13          5  C    CARTESIAN X    -0.687545    -0.145037  KCAL/ANGSTROM
     14          5  C    CARTESIAN Y    -0.998499    -0.102871  KCAL/ANGSTROM
     15          5  C    CARTESIAN Z     2.237210    -0.022340  KCAL/ANGSTROM
     16          6  C    CARTESIAN X     0.050687     0.072759  KCAL/ANGSTROM
     17          6  C    CARTESIAN Y    -1.225380    -0.081475  KCAL/ANGSTROM
     18          6  C    CARTESIAN Z     0.909134     0.007446  KCAL/ANGSTROM
     19          7  H    CARTESIAN X     0.431339    -0.014573  KCAL/ANGSTROM
     20          7  H    CARTESIAN Y     0.880598    -0.021248  KCAL/ANGSTROM
     21          7  H    CARTESIAN Z     0.491611    -0.013915  KCAL/ANGSTROM
     22          8  H    CARTESIAN X    -1.720760     0.005947  KCAL/ANGSTROM
     23          8  H    CARTESIAN Y     0.861005     0.000401  KCAL/ANGSTROM
     24          8  H    CARTESIAN Z     4.039110     0.001598  KCAL/ANGSTROM
     25          9  H    CARTESIAN X    -0.144277    -0.016142  KCAL/ANGSTROM
     26          9  H    CARTESIAN Y     1.527380    -0.022929  KCAL/ANGSTROM
     27          9  H    CARTESIAN Z     4.591140    -0.023319  KCAL/ANGSTROM
     28         10  H    CARTESIAN X    -1.733170     0.013464  KCAL/ANGSTROM
     29         10  H    CARTESIAN Y    -0.689742     0.002975  KCAL/ANGSTROM
     30         10  H    CARTESIAN Z     2.032940    -0.001097  KCAL/ANGSTROM
     31         11  H    CARTESIAN X    -0.767152    -0.000836  KCAL/ANGSTROM
     32         11  H    CARTESIAN Y    -1.961300     0.017875  KCAL/ANGSTROM
     33         11  H    CARTESIAN Z     2.786300     0.004578  KCAL/ANGSTROM
     34         12  H    CARTESIAN X    -0.397898    -0.006581  KCAL/ANGSTROM
     35         12  H    CARTESIAN Y    -2.094220    -0.006593  KCAL/ANGSTROM
     36         12  H    CARTESIAN Z     0.387843    -0.006239  KCAL/ANGSTROM
     37         13  H    CARTESIAN X     1.104800    -0.004822  KCAL/ANGSTROM
     38         13  H    CARTESIAN Y    -1.503770     0.009353  KCAL/ANGSTROM
     39         13  H    CARTESIAN Z     1.105460    -0.005088  KCAL/ANGSTROM
     40         14  H    CARTESIAN X     0.556644     0.008291  KCAL/ANGSTROM
     41         14  H    CARTESIAN Y    -0.168125    -0.000118  KCAL/ANGSTROM
     42         14  H    CARTESIAN Z    -0.927999     0.014958  KCAL/ANGSTROM
     43         15  H    CARTESIAN X    -1.029840     0.006328  KCAL/ANGSTROM
     44         15  H    CARTESIAN Y     0.257006     0.005992  KCAL/ANGSTROM
     45         15  H    CARTESIAN Z    -0.272877    -0.002506  KCAL/ANGSTROM




   ATOM   CHEMICAL          X               Y               Z
  NUMBER   SYMBOL      (ANGSTROMS)     (ANGSTROMS)     (ANGSTROMS)
 
     1       C          0.00000000  *   0.00000000  *   0.00000000  *
     2       C          0.00000000  *   0.00000000  *   3.12137000  *
     3       H          1.08983000  *   0.00000000  *   3.05497000  *
     4       C         -0.64623700  *   0.82329600  *   3.94506000  *
     5       C         -0.68754500  *  -0.99849900  *   2.23721000  *
     6       C          0.05068700  *  -1.22538000  *   0.90913400  *
     7       H          0.43133900  *   0.88059800  *   0.49161100  *
     8       H         -1.72076000  *   0.86100500  *   4.03911000  *
     9       H         -0.14427700  *   1.52738000  *   4.59114000  *
    10       H         -1.73317000  *  -0.68974200  *   2.03294000  *
    11       H         -0.76715200  *  -1.96130000  *   2.78630000  *
    12       H         -0.39789800  *  -2.09422000  *   0.38784300  *
    13       H          1.10480000  *  -1.50377000  *   1.10546000  *
    14       H          0.55664400  *  -0.16812500  *  -0.92799900  *
    15       H         -1.02984000  *   0.25700600  *  -0.27287700  *

                             CARTESIAN COORDINATES

   1    C        0.000000000     0.000000000     0.000000000
   2    C        0.000000000     0.000000000     3.121370000
   3    H        1.089830000     0.000000000     3.054970000
   4    C       -0.646237000     0.823296000     3.945060000
   5    C       -0.687545000    -0.998499000     2.237210000
   6    C        0.050687000    -1.225380000     0.909134000
   7    H        0.431339000     0.880598000     0.491611000
   8    H       -1.720760000     0.861005000     4.039110000
   9    H       -0.144277000     1.527380000     4.591140000
  10    H       -1.733170000    -0.689742000     2.032940000
  11    H       -0.767152000    -1.961300000     2.786300000
  12    H       -0.397898000    -2.094220000     0.387843000
  13    H        1.104800000    -1.503770000     1.105460000
  14    H        0.556644000    -0.168125000    -0.927999000
  15    H       -1.029840000     0.257006000    -0.272877000


           Empirical Formula: C5 H10  =    15 atoms



      MOLECULAR POINT GROUP   :   C1  


                  EIGENVALUES  
 -28.56069 -26.44755 -23.79052 -20.66045 -19.43395 -15.57366 -15.46099 -15.24291
 -13.77179 -13.34774 -12.38582 -12.10256 -11.76226 -11.37051  -9.96508   1.36187
   4.18049   4.36836   4.59900   5.59073   5.70942   5.87582   5.99377   6.13931
   6.17962   6.33679   6.48085   6.65594   6.77240   6.95479


              NET ATOMIC CHARGES AND DIPOLE CONTRIBUTIONS

  ATOM NO.   TYPE          CHARGE      No. of ELECS.   s-Pop       p-Pop       
    1          C          -0.461116        4.4611     1.08214     3.37897
    2          C          -0.053001        4.0530     1.11060     2.94240
    3          H           0.131067        0.8689     0.86893
    4          C          -0.398625        4.3986     1.11681     3.28182
    5          C          -0.297358        4.2974     1.08630     3.21106
    6          C          -0.209349        4.2093     1.08017     3.12918
    7          H           0.151992        0.8480     0.84801
    8          H           0.152504        0.8475     0.84750
    9          H           0.151698        0.8483     0.84830
   10          H           0.147722        0.8523     0.85228
   11          H           0.144433        0.8556     0.85557
   12          H           0.123982        0.8760     0.87602
   13          H           0.126203        0.8738     0.87380
   14          H           0.142563        0.8574     0.85744
   15          H           0.147288        0.8527     0.85271
 DIPOLE           X         Y         Z       TOTAL
 POINT-CHG.     0.127    -0.474    -0.424     0.648
 HYBRID        -0.079     0.067     0.005     0.103
 SUM            0.048    -0.407    -0.419     0.586


          ATOMIC ORBITAL ELECTRON POPULATIONS

     Atom    s        px        py        pz   
    1  C   1.08214   1.17141   1.09105   1.11651
    2  C   1.11060   1.05414   0.94696   0.94131
    3  H   0.86893
    4  C   1.11681   1.12932   1.07659   1.07591
    5  C   1.08630   1.09867   1.09183   1.02056
    6  C   1.08017   1.10618   1.03390   0.98910
    7  H   0.84801
    8  H   0.84750
    9  H   0.84830
   10  H   0.85228
   11  H   0.85557
   12  H   0.87602
   13  H   0.87380
   14  H   0.85744
   15  H   0.85271
 *******************************************************************************
 ** Site#: 24072        For non-commercial use only    Version 19.090L 64BITS **
 *******************************************************************************
 ** Cite this program as: MOPAC2016, Version: 19.090L, James J. P. Stewart,   **
 ** Stewart Computational Chemistry, web-site: HTTP://OpenMOPAC.net.          **
 *******************************************************************************
 **                                                                           **
 **                                MOPAC2016                                  **
 **                                                                           **
 *******************************************************************************

                              PM6 CALCULATION RESULTS

 *******************************************************************************
 *  CALCULATION DONE:                                Sat Jan  4 20:13:00 2020  *
 *  PM6        - The PM6 Hamiltonian to be used
 *  GEO-OK     - OVERRIDE INTERATOMIC DISTANCE AND OTHER SAFETY CHECKS
 *
 *
 *
 *                 CHARGE ON SYSTEM = 0
 *
 *
 *
 *  1SCF       - DO 1 SCF AND THEN STOP 
 *  T=         - A TIME OF 172800.0 SECONDS REQUESTED
 *  DUMP=N     - RESTART FILE WRITTEN EVERY  7200.000 SECONDS
 *  RELSCF     - DEFAULT SCF CRITERION MULTIPLIED BY 0.0010
 *              (DEFAULT SCF CRITERION = 0.00010)
 *  GRADIENTS  - ALL GRADIENTS TO BE PRINTED
 *******************************************************************************
PM6 grad 1scf relscf=0.001 geo-ok charge=0
 handlarbar template for mopac
 calculate energy and gradients
   ATOM   CHEMICAL          X               Y               Z
  NUMBER   SYMBOL      (ANGSTROMS)     (ANGSTROMS)     (ANGSTROMS)
 
     1       C         -0.07009500  *   0.00866700  *  -0.11260300  *
     2       C          0.01152400  *  -0.10882600  *   3.20679000  *
     3       H          1.10159000  *  -0.16082300  *   3.19714000  *
     4       C         -0.59959600  *   0.98154900  *   3.74442000  *
     5       C         -0.73880100  *  -1.14902000  *   2.51071000  *
     6       C         -0.01013400  *  -1.24096000  *   0.67390200  *
     7       H          0.36160000  *   1.02041000  *   0.86252800  *
     8       H         -1.67324000  *   1.03491000  *   3.86721000  *
     9       H         -0.07991500  *   1.63817000  *   4.42969000  *
    10       H         -1.80509000  *  -0.92491600  *   2.34222000  *
    11       H         -0.69919000  *  -2.10589000  *   3.05859000  *
    12       H         -0.39293300  *  -2.10801000  *   0.11551300  *
    13       H          0.99835400  *  -1.49180000  *   1.03551000  *
    14       H          0.73203300  *   0.09526400  *  -0.84408200  *
    15       H         -1.02969000  *   0.21953200  *  -0.58625100  *
 


          CARTESIAN COORDINATES 

    NO.       ATOM           X           Y           Z

     1         C         -0.0701      0.0087     -0.1126
     2         C          0.0115     -0.1088      3.2068
     3         H          1.1016     -0.1608      3.1971
     4         C         -0.5996      0.9815      3.7444
     5         C         -0.7388     -1.1490      2.5107
     6         C         -0.0101     -1.2410      0.6739
     7         H          0.3616      1.0204      0.8625
     8         H         -1.6732      1.0349      3.8672
     9         H         -0.0799      1.6382      4.4297
    10         H         -1.8051     -0.9249      2.3422
    11         H         -0.6992     -2.1059      3.0586
    12         H         -0.3929     -2.1080      0.1155
    13         H          0.9984     -1.4918      1.0355
    14         H          0.7320      0.0953     -0.8441
    15         H         -1.0297      0.2195     -0.5863

 General Reference for PM6:
 "Optimization of Parameters for Semiempirical Methods V: Modification of NDDO Approximations
 and Application to 70 Elements", J. J. P. Stewart, J. Mol. Mod., 13, 1173-1213 (2007)
 URL: http://www.springerlink.com/content/ar33482301010477/fulltext.pdf

           Empirical Formula: C5 H10  =    15 atoms



      MOLECULAR POINT GROUP   :   C1  


      RHF CALCULATION, NO. OF DOUBLY OCCUPIED LEVELS = 15

  SCF CRITERION =    0.1000E-06

 -------------------------------------------------------------------------------
 PM6 grad 1scf relscf=0.001 geo-ok charge=0
 handlarbar template for mopac
 calculate energy and gradients


     1SCF WAS SPECIFIED, SO BFGS WAS NOT USED                 
     SCF FIELD WAS ACHIEVED                                   


                              PM6 CALCULATION
                                                       MOPAC2016 (Version: 19.090L)
                                                       Sat Jan  4 20:13:00 2020




          FINAL HEAT OF FORMATION =         69.02371 KCAL/MOL =     288.79521 KJ/MOL


          TOTAL ENERGY            =       -745.13040 EV
          ELECTRONIC ENERGY       =      -3027.03175 EV  POINT GROUP:     C1  
          CORE-CORE REPULSION     =       2281.90135 EV
          COSMO AREA              =        133.71 SQUARE ANGSTROMS
          COSMO VOLUME            =        123.34 CUBIC ANGSTROMS

          GRADIENT NORM           =        229.11255 = 59.15661 PER ATOM
          IONIZATION POTENTIAL    =          9.308918 EV
          HOMO LUMO ENERGIES (EV) =         -9.309  0.841
          NO. OF FILLED LEVELS    =         15
          MOLECULAR WEIGHT        =         70.1340

          MOLECULAR DIMENSIONS (Angstroms)

            Atom       Atom       Distance
            H    12    H     9     5.72223
            H    11    H    14     4.48323
            H     3    H     8     2.83118


          SCF CALCULATIONS        =          1
 
          WALL-CLOCK TIME         =          0.094 SECONDS
          COMPUTATION TIME        =          0.292 SECONDS

          LARGEST ATOMIC GRADIENTS

          Atom     Label                     Cartesian Gradients           Cartesian Coordinates       |Gradient|
                                           X          Y          Z        X          Y          Z

             1       C                 -35.372    -80.392    -87.496   -0.07010    0.00867   -0.11260    123.974
             7       H                  44.871     78.721     83.593    0.36160    1.02041    0.86253    123.281
             6       C                  10.323     16.163    -86.050   -0.01013   -1.24096    0.67390     88.161
             5       C                  -8.573      7.572     86.686   -0.73880   -1.14902    2.51071     87.437
             4       C                 -13.321     45.990    -20.244   -0.59960    0.98155    3.74442     51.984
             2       C                  10.681    -46.767      0.699    0.01152   -0.10883    3.20679     47.977
            11       H                  -7.766     -0.744     19.434   -0.69919   -2.10589    3.05859     20.941
            12       H                  10.013     -4.362    -17.138   -0.39293   -2.10801    0.11551     20.323
             9       H                  -0.785     -7.914     11.829   -0.07992    1.63817    4.42969     14.254
            15       H                  -4.614     -6.470     -9.486   -1.02969    0.21953   -0.58625     12.375



       FINAL  POINT  AND  DERIVATIVES

   PARAMETER     ATOM    TYPE            VALUE       GRADIENT
      1          1  C    CARTESIAN X    -0.070095   -35.372398  KCAL/ANGSTROM
      2          1  C    CARTESIAN Y     0.008667   -80.392289  KCAL/ANGSTROM
      3          1  C    CARTESIAN Z    -0.112603   -87.495811  KCAL/ANGSTROM
      4          2  C    CARTESIAN X     0.011524    10.681222  KCAL/ANGSTROM
      5          2  C    CARTESIAN Y    -0.108826   -46.767394  KCAL/ANGSTROM
      6          2  C    CARTESIAN Z     3.206790     0.698597  KCAL/ANGSTROM
      7          3  H    CARTESIAN X     1.101590     0.839066  KCAL/ANGSTROM
      8          3  H    CARTESIAN Y    -0.160823     5.120053  KCAL/ANGSTROM
      9          3  H    CARTESIAN Z     3.197140    -1.136747  KCAL/ANGSTROM
     10          4  C    CARTESIAN X    -0.599596   -13.320924  KCAL/ANGSTROM
     11          4  C    CARTESIAN Y     0.981549    45.990102  KCAL/ANGSTROM
     12          4  C    CARTESIAN Z     3.744420   -20.244160  KCAL/ANGSTROM
     13          5  C    CARTESIAN X    -0.738801    -8.573420  KCAL/ANGSTROM
     14          5  C    CARTESIAN Y    -1.149020     7.571799  KCAL/ANGSTROM
     15          5  C    CARTESIAN Z     2.510710    86.685594  KCAL/ANGSTROM
     16          6  C    CARTESIAN X    -0.010134    10.323030  KCAL/ANGSTROM
     17          6  C    CARTESIAN Y    -1.240960    16.162524  KCAL/ANGSTROM
     18          6  C    CARTESIAN Z     0.673902   -86.050078  KCAL/ANGSTROM
     19          7  H    CARTESIAN X     0.361600    44.870794  KCAL/ANGSTROM
     20          7  H    CARTESIAN Y     1.020410    78.721499  KCAL/ANGSTROM
     21          7  H    CARTESIAN Z     0.862528    83.593223  KCAL/ANGSTROM
     22          8  H    CARTESIAN X    -1.673240    -1.232727  KCAL/ANGSTROM
     23          8  H    CARTESIAN Y     1.034910    -6.884600  KCAL/ANGSTROM
     24          8  H    CARTESIAN Z     3.867210     9.941732  KCAL/ANGSTROM
     25          9  H    CARTESIAN X    -0.079915    -0.784598  KCAL/ANGSTROM
     26          9  H    CARTESIAN Y     1.638170    -7.914244  KCAL/ANGSTROM
     27          9  H    CARTESIAN Z     4.429690    11.828765  KCAL/ANGSTROM
     28         10  H    CARTESIAN X    -1.805090    -8.529699  KCAL/ANGSTROM
     29         10  H    CARTESIAN Y    -0.924916     0.454597  KCAL/ANGSTROM
     30         10  H    CARTESIAN Z     2.342220     4.086740  KCAL/ANGSTROM
     31         11  H    CARTESIAN X    -0.699190    -7.765584  KCAL/ANGSTROM
     32         11  H    CARTESIAN Y    -2.105890    -0.744072  KCAL/ANGSTROM
     33         11  H    CARTESIAN Z     3.058590    19.434209  KCAL/ANGSTROM
     34         12  H    CARTESIAN X    -0.392933    10.013067  KCAL/ANGSTROM
     35         12  H    CARTESIAN Y    -2.108010    -4.362231  KCAL/ANGSTROM
     36         12  H    CARTESIAN Z     0.115513   -17.138206  KCAL/ANGSTROM
     37         13  H    CARTESIAN X     0.998354     1.595943  KCAL/ANGSTROM
     38         13  H    CARTESIAN Y    -1.491800    -1.103060  KCAL/ANGSTROM
     39         13  H    CARTESIAN Z     1.035510     4.613816  KCAL/ANGSTROM
     40         14  H    CARTESIAN X     0.732033     1.870467  KCAL/ANGSTROM
     41         14  H    CARTESIAN Y     0.095264     0.617101  KCAL/ANGSTROM
     42         14  H    CARTESIAN Z    -0.844082     0.668224  KCAL/ANGSTROM
     43         15  H    CARTESIAN X    -1.029690    -4.614239  KCAL/ANGSTROM
     44         15  H    CARTESIAN Y     0.219532    -6.469786  KCAL/ANGSTROM
     45         15  H    CARTESIAN Z    -0.586251    -9.485898  KCAL/ANGSTROM




   ATOM   CHEMICAL          X               Y               Z
  NUMBER   SYMBOL      (ANGSTROMS)     (ANGSTROMS)     (ANGSTROMS)
 
     1       C         -0.07009500  *   0.00866700  *  -0.11260300  *
     2       C          0.01152400  *  -0.10882600  *   3.20679000  *
     3       H          1.10159000  *  -0.16082300  *   3.19714000  *
     4       C         -0.59959600  *   0.98154900  *   3.74442000  *
     5       C         -0.73880100  *  -1.14902000  *   2.51071000  *
     6       C         -0.01013400  *  -1.24096000  *   0.67390200  *
     7       H          0.36160000  *   1.02041000  *   0.86252800  *
     8       H         -1.67324000  *   1.03491000  *   3.86721000  *
     9       H         -0.07991500  *   1.63817000  *   4.42969000  *
    10       H         -1.80509000  *  -0.92491600  *   2.34222000  *
    11       H         -0.69919000  *  -2.10589000  *   3.05859000  *
    12       H         -0.39293300  *  -2.10801000  *   0.11551300  *
    13       H          0.99835400  *  -1.49180000  *   1.03551000  *
    14       H          0.73203300  *   0.09526400  *  -0.84408200  *
    15       H         -1.02969000  *   0.21953200  *  -0.58625100  *

                             CARTESIAN COORDINATES

   1    C       -0.070095000     0.008667000    -0.112603000
   2    C        0.011524000    -0.108826000     3.206790000
   3    H        1.101590000    -0.160823000     3.197140000
   4    C       -0.599596000     0.981549000     3.744420000
   5    C       -0.738801000    -1.149020000     2.510710000
   6    C       -0.010134000    -1.240960000     0.673902000
   7    H        0.361600000     1.020410000     0.862528000
   8    H       -1.673240000     1.034910000     3.867210000
   9    H       -0.079915000     1.638170000     4.429690000
  10    H       -1.805090000    -0.924916000     2.342220000
  11    H       -0.699190000    -2.105890000     3.058590000
  12    H       -0.392933000    -2.108010000     0.115513000
  13    H        0.998354000    -1.491800000     1.035510000
  14    H        0.732033000     0.095264000    -0.844082000
  15    H       -1.029690000     0.219532000    -0.586251000


           Empirical Formula: C5 H10  =    15 atoms



      MOLECULAR POINT GROUP   :   C1  


                  EIGENVALUES  
 -27.46385 -25.80340 -23.06664 -20.14599 -19.31884 -15.54400 -15.09087 -14.17363
 -14.10565 -12.93434 -12.58068 -12.04443 -11.11456 -10.39149  -9.30892   0.84099
   2.06929   3.46721   4.86250   5.06753   5.53866   5.83754   5.96721   6.14445
   6.26398   6.35395   6.47344   6.68350   6.73136   6.78688


              NET ATOMIC CHARGES AND DIPOLE CONTRIBUTIONS

  ATOM NO.   TYPE          CHARGE      No. of ELECS.   s-Pop       p-Pop       
    1          C          -0.471397        4.4714     1.11179     3.35961
    2          C          -0.060166        4.0602     1.11185     2.94832
    3          H           0.129244        0.8708     0.87076
    4          C          -0.389454        4.3895     1.13009     3.25936
    5          C          -0.331328        4.3313     1.13054     3.20079
    6          C          -0.174708        4.1747     1.12045     3.05426
    7          H           0.184204        0.8158     0.81580
    8          H           0.150550        0.8494     0.84945
    9          H           0.147243        0.8528     0.85276
   10          H           0.141671        0.8583     0.85833
   11          H           0.142486        0.8575     0.85751
   12          H           0.121483        0.8785     0.87852
   13          H           0.115546        0.8845     0.88445
   14          H           0.143016        0.8570     0.85698
   15          H           0.151611        0.8484     0.84839
 DIPOLE           X         Y         Z       TOTAL
 POINT-CHG.     0.570    -0.148    -0.238     0.635
 HYBRID        -0.049    -0.054     0.178     0.192
 SUM            0.521    -0.202    -0.060     0.562


          ATOMIC ORBITAL ELECTRON POPULATIONS

     Atom    s        px        py        pz   
    1  C   1.11179   1.15017   1.09298   1.11646
    2  C   1.11185   1.05328   0.94416   0.95088
    3  H   0.87076
    4  C   1.13009   1.12961   1.05303   1.07672
    5  C   1.13054   1.10489   1.07849   1.01741
    6  C   1.12045   1.09322   1.02597   0.93508
    7  H   0.81580
    8  H   0.84945
    9  H   0.85276
   10  H   0.85833
   11  H   0.85751
   12  H   0.87852
   13  H   0.88445
   14  H   0.85698
   15  H   0.84839
 *******************************************************************************
 ** Site#: 24072        For non-commercial use only    Version 19.090L 64BITS **
 *******************************************************************************
 ** Cite this program as: MOPAC2016, Version: 19.090L, James J. P. Stewart,   **
 ** Stewart Computational Chemistry, web-site: HTTP://OpenMOPAC.net.          **
 *******************************************************************************
 **                                                                           **
 **                                MOPAC2016                                  **
 **                                                                           **
 *******************************************************************************

                              PM6 CALCULATION RESULTS

 *******************************************************************************
 *  CALCULATION DONE:                                Sat Jan  4 20:13:00 2020  *
 *  PM6        - The PM6 Hamiltonian to be used
 *  GEO-OK     - OVERRIDE INTERATOMIC DISTANCE AND OTHER SAFETY CHECKS
 *
 *
 *
 *                 CHARGE ON SYSTEM = 0
 *
 *
 *
 *  1SCF       - DO 1 SCF AND THEN STOP 
 *  T=         - A TIME OF 172800.0 SECONDS REQUESTED
 *  DUMP=N     - RESTART FILE WRITTEN EVERY  7200.000 SECONDS
 *  RELSCF     - DEFAULT SCF CRITERION MULTIPLIED BY 0.0010
 *              (DEFAULT SCF CRITERION = 0.00010)
 *  GRADIENTS  - ALL GRADIENTS TO BE PRINTED
 *******************************************************************************
PM6 grad 1scf relscf=0.001 geo-ok charge=0
 handlarbar template for mopac
 calculate energy and gradients
   ATOM   CHEMICAL          X               Y               Z
  NUMBER   SYMBOL      (ANGSTROMS)     (ANGSTROMS)     (ANGSTROMS)
 
     1       C         -0.09101700  *   0.02789500  *  -0.26437300  *
     2       C          0.03621000  *  -0.18515400  *   3.28848000  *
     3       H          1.12570000  *  -0.24517900  *   3.31239000  *
     4       C         -0.55924300  *   1.04419000  *   3.55643000  *
     5       C         -0.72913200  *  -1.28432000  *   2.80505000  *
     6       C         -0.11817300  *  -1.20553000  *   0.47043500  *
     7       H          0.27956600  *   1.09060000  *   1.17783000  *
     8       H         -1.63933000  *   1.12032000  *   3.63441000  *
     9       H         -0.07308800  *   1.71311000  *   4.25994000  *
    10       H         -1.80744000  *  -1.14411000  *   2.66961000  *
    11       H         -0.57110100  *  -2.21956000  *   3.35453000  *
    12       H         -0.47935500  *  -2.06679000  *  -0.10011700  *
    13       H          0.81416200  *  -1.47631000  *   0.97956500  *
    14       H          0.85472900  *   0.27467600  *  -0.73791300  *
    15       H         -0.93607100  *   0.26438800  *  -0.90497500  *
 


          CARTESIAN COORDINATES 

    NO.       ATOM           X           Y           Z

     1         C         -0.0910      0.0279     -0.2644
     2         C          0.0362     -0.1852      3.2885
     3         H          1.1257     -0.2452      3.3124
     4         C         -0.5592      1.0442      3.5564
     5         C         -0.7291     -1.2843      2.8051
     6         C         -0.1182     -1.2055      0.4704
     7         H          0.2796      1.0906      1.1778
     8         H         -1.6393      1.1203      3.6344
     9         H         -0.0731      1.7131      4.2599
    10         H         -1.8074     -1.1441      2.6696
    11         H         -0.5711     -2.2196      3.3545
    12         H         -0.4794     -2.0668     -0.1001
    13         H          0.8142     -1.4763      0.9796
    14         H          0.8547      0.2747     -0.7379
    15         H         -0.9361      0.2644     -0.9050

 General Reference for PM6:
 "Optimization of Parameters for Semiempirical Methods V: Modification of NDDO Approximations
 and Application to 70 Elements", J. J. P. Stewart, J. Mol. Mod., 13, 1173-1213 (2007)
 URL: http://www.springerlink.com/content/ar33482301010477/fulltext.pdf

           Empirical Formula: C5 H10  =    15 atoms



      MOLECULAR POINT GROUP   :   C1  


      RHF CALCULATION, NO. OF DOUBLY OCCUPIED LEVELS = 15

  SCF CRITERION =    0.1000E-06

 -------------------------------------------------------------------------------
 PM6 grad 1scf relscf=0.001 geo-ok charge=0
 handlarbar template for mopac
 calculate energy and gradients


     1SCF WAS SPECIFIED, SO BFGS WAS NOT USED                 
     SCF FIELD WAS ACHIEVED                                   


                              PM6 CALCULATION
                                                       MOPAC2016 (Version: 19.090L)
                                                       Sat Jan  4 20:13:00 2020




          FINAL HEAT OF FORMATION =        164.80781 KCAL/MOL =     689.55586 KJ/MOL


          TOTAL ENERGY            =       -740.97680 EV
          ELECTRONIC ENERGY       =      -2968.02466 EV  POINT GROUP:     C1  
          CORE-CORE REPULSION     =       2227.04785 EV
          COSMO AREA              =        137.64 SQUARE ANGSTROMS
          COSMO VOLUME            =        127.40 CUBIC ANGSTROMS

          GRADIENT NORM           =        190.66246 = 49.22883 PER ATOM
          IONIZATION POTENTIAL    =          7.658227 EV
          HOMO LUMO ENERGIES (EV) =         -7.658 -0.637
          NO. OF FILLED LEVELS    =         15
          MOLECULAR WEIGHT        =         70.1340

          MOLECULAR DIMENSIONS (Angstroms)

            Atom       Atom       Distance
            H    12    H     9     5.78470
            H    11    H    14     4.81324
            H     3    H     8     2.95196


          SCF CALCULATIONS        =          1
 
          WALL-CLOCK TIME         =          0.125 SECONDS
          COMPUTATION TIME        =          0.442 SECONDS

          LARGEST ATOMIC GRADIENTS

          Atom     Label                     Cartesian Gradients           Cartesian Coordinates       |Gradient|
                                           X          Y          Z        X          Y          Z

             1       C                 -18.430    -48.349    -90.846   -0.09102    0.02789   -0.26437    104.548
             7       H                  35.126     58.517     78.893    0.27957    1.09060    1.17783    104.318
             4       C                 -18.680     59.956    -26.900   -0.55924    1.04419    3.55643     68.318
             2       C                  21.210    -58.229     14.728    0.03621   -0.18515    3.28848     63.697
             6       C                 -32.581     14.924    -22.851   -0.11817   -1.20553    0.47043     42.502
            12       H                  21.335     -2.848    -24.014   -0.47936   -2.06679   -0.10012     32.249
             5       C                  11.827     -1.912     28.799   -0.72913   -1.28432    2.80505     31.191
            11       H                  -8.081      0.832     25.544   -0.57110   -2.21956    3.35453     26.804
             9       H                  -2.900    -10.070     19.893   -0.07309    1.71311    4.25994     22.485
            15       H                  -1.978     -8.417    -12.890   -0.93607    0.26439   -0.90498     15.521



       FINAL  POINT  AND  DERIVATIVES

   PARAMETER     ATOM    TYPE            VALUE       GRADIENT
      1          1  C    CARTESIAN X    -0.091017   -18.430000  KCAL/ANGSTROM
      2          1  C    CARTESIAN Y     0.027895   -48.349071  KCAL/ANGSTROM
      3          1  C    CARTESIAN Z    -0.264373   -90.846142  KCAL/ANGSTROM
      4          2  C    CARTESIAN X     0.036210    21.210133  KCAL/ANGSTROM
      5          2  C    CARTESIAN Y    -0.185154   -58.228752  KCAL/ANGSTROM
      6          2  C    CARTESIAN Z     3.288480    14.727935  KCAL/ANGSTROM
      7          3  H    CARTESIAN X     1.125700     1.461313  KCAL/ANGSTROM
      8          3  H    CARTESIAN Y    -0.245179     6.268679  KCAL/ANGSTROM
      9          3  H    CARTESIAN Z     3.312390    -5.868987  KCAL/ANGSTROM
     10          4  C    CARTESIAN X    -0.559243   -18.679991  KCAL/ANGSTROM
     11          4  C    CARTESIAN Y     1.044190    59.956320  KCAL/ANGSTROM
     12          4  C    CARTESIAN Z     3.556430   -26.900036  KCAL/ANGSTROM
     13          5  C    CARTESIAN X    -0.729132    11.827329  KCAL/ANGSTROM
     14          5  C    CARTESIAN Y    -1.284320    -1.912076  KCAL/ANGSTROM
     15          5  C    CARTESIAN Z     2.805050    28.798646  KCAL/ANGSTROM
     16          6  C    CARTESIAN X    -0.118173   -32.581081  KCAL/ANGSTROM
     17          6  C    CARTESIAN Y    -1.205530    14.924403  KCAL/ANGSTROM
     18          6  C    CARTESIAN Z     0.470435   -22.850928  KCAL/ANGSTROM
     19          7  H    CARTESIAN X     0.279566    35.126406  KCAL/ANGSTROM
     20          7  H    CARTESIAN Y     1.090600    58.517063  KCAL/ANGSTROM
     21          7  H    CARTESIAN Z     1.177830    78.892522  KCAL/ANGSTROM
     22          8  H    CARTESIAN X    -1.639330    -4.521610  KCAL/ANGSTROM
     23          8  H    CARTESIAN Y     1.120320    -6.266990  KCAL/ANGSTROM
     24          8  H    CARTESIAN Z     3.634410    13.458203  KCAL/ANGSTROM
     25          9  H    CARTESIAN X    -0.073088    -2.900498  KCAL/ANGSTROM
     26          9  H    CARTESIAN Y     1.713110   -10.070254  KCAL/ANGSTROM
     27          9  H    CARTESIAN Z     4.259940    19.893498  KCAL/ANGSTROM
     28         10  H    CARTESIAN X    -1.807440   -10.444466  KCAL/ANGSTROM
     29         10  H    CARTESIAN Y    -1.144110     0.450036  KCAL/ANGSTROM
     30         10  H    CARTESIAN Z     2.669610     6.280017  KCAL/ANGSTROM
     31         11  H    CARTESIAN X    -0.571101    -8.080543  KCAL/ANGSTROM
     32         11  H    CARTESIAN Y    -2.219560     0.832100  KCAL/ANGSTROM
     33         11  H    CARTESIAN Z     3.354530    25.543740  KCAL/ANGSTROM
     34         12  H    CARTESIAN X    -0.479355    21.335179  KCAL/ANGSTROM
     35         12  H    CARTESIAN Y    -2.066790    -2.848470  KCAL/ANGSTROM
     36         12  H    CARTESIAN Z    -0.100117   -24.014170  KCAL/ANGSTROM
     37         13  H    CARTESIAN X     0.814162     4.820545  KCAL/ANGSTROM
     38         13  H    CARTESIAN Y    -1.476310    -0.696678  KCAL/ANGSTROM
     39         13  H    CARTESIAN Z     0.979565     0.337005  KCAL/ANGSTROM
     40         14  H    CARTESIAN X     0.854729     1.835158  KCAL/ANGSTROM
     41         14  H    CARTESIAN Y     0.274676    -4.159262  KCAL/ANGSTROM
     42         14  H    CARTESIAN Z    -0.737913    -4.561323  KCAL/ANGSTROM
     43         15  H    CARTESIAN X    -0.936071    -1.977873  KCAL/ANGSTROM
     44         15  H    CARTESIAN Y     0.264388    -8.417049  KCAL/ANGSTROM
     45         15  H    CARTESIAN Z    -0.904975   -12.889981  KCAL/ANGSTROM




   ATOM   CHEMICAL          X               Y               Z
  NUMBER   SYMBOL      (ANGSTROMS)     (ANGSTROMS)     (ANGSTROMS)
 
     1       C         -0.09101700  *   0.02789500  *  -0.26437300  *
     2       C          0.03621000  *  -0.18515400  *   3.28848000  *
     3       H          1.12570000  *  -0.24517900  *   3.31239000  *
     4       C         -0.55924300  *   1.04419000  *   3.55643000  *
     5       C         -0.72913200  *  -1.28432000  *   2.80505000  *
     6       C         -0.11817300  *  -1.20553000  *   0.47043500  *
     7       H          0.27956600  *   1.09060000  *   1.17783000  *
     8       H         -1.63933000  *   1.12032000  *   3.63441000  *
     9       H         -0.07308800  *   1.71311000  *   4.25994000  *
    10       H         -1.80744000  *  -1.14411000  *   2.66961000  *
    11       H         -0.57110100  *  -2.21956000  *   3.35453000  *
    12       H         -0.47935500  *  -2.06679000  *  -0.10011700  *
    13       H          0.81416200  *  -1.47631000  *   0.97956500  *
    14       H          0.85472900  *   0.27467600  *  -0.73791300  *
    15       H         -0.93607100  *   0.26438800  *  -0.90497500  *

                             CARTESIAN COORDINATES

   1    C       -0.091017000     0.027895000    -0.264373000
   2    C        0.036210000    -0.185154000     3.288480000
   3    H        1.125700000    -0.245179000     3.312390000
   4    C       -0.559243000     1.044190000     3.556430000
   5    C       -0.729132000    -1.284320000     2.805050000
   6    C       -0.118173000    -1.205530000     0.470435000
   7    H        0.279566000     1.090600000     1.177830000
   8    H       -1.639330000     1.120320000     3.634410000
   9    H       -0.073088000     1.713110000     4.259940000
  10    H       -1.807440000    -1.144110000     2.669610000
  11    H       -0.571101000    -2.219560000     3.354530000
  12    H       -0.479355000    -2.066790000    -0.100117000
  13    H        0.814162000    -1.476310000     0.979565000
  14    H        0.854729000     0.274676000    -0.737913000
  15    H       -0.936071000     0.264388000    -0.904975000


           Empirical Formula: C5 H10  =    15 atoms



      MOLECULAR POINT GROUP   :   C1  


                  EIGENVALUES  
 -27.11664 -25.93894 -22.68773 -20.14362 -19.12600 -15.44504 -15.31570 -14.06243
 -13.97357 -12.88953 -12.26850 -12.05585 -10.85583  -9.59178  -7.65823  -0.63726
   1.13754   1.58159   5.17392   5.34475   5.54004   5.65545   5.97474   6.15497
   6.27861   6.46158   6.52641   6.65665   6.87751   7.09961


              NET ATOMIC CHARGES AND DIPOLE CONTRIBUTIONS

  ATOM NO.   TYPE          CHARGE      No. of ELECS.   s-Pop       p-Pop       
    1          C          -0.498636        4.4986     1.12516     3.37348
    2          C          -0.013076        4.0131     1.11430     2.89877
    3          H           0.118841        0.8812     0.88116
    4          C          -0.440342        4.4403     1.14431     3.29603
    5          C          -0.455232        4.4552     1.14567     3.30956
    6          C          -0.122642        4.1226     1.13445     2.98819
    7          H           0.248715        0.7513     0.75128
    8          H           0.152407        0.8476     0.84759
    9          H           0.147917        0.8521     0.85208
   10          H           0.144153        0.8558     0.85585
   11          H           0.148681        0.8513     0.85132
   12          H           0.130932        0.8691     0.86907
   13          H           0.122733        0.8773     0.87727
   14          H           0.156457        0.8435     0.84354
   15          H           0.159092        0.8409     0.84091
 DIPOLE           X         Y         Z       TOTAL
 POINT-CHG.     1.233     0.316    -1.009     1.624
 HYBRID        -0.112    -0.053     0.407     0.425
 SUM            1.121     0.263    -0.602     1.300


          ATOMIC ORBITAL ELECTRON POPULATIONS

     Atom    s        px        py        pz   
    1  C   1.12516   1.14948   1.11705   1.10694
    2  C   1.11430   1.04247   0.94807   0.90823
    3  H   0.88116
    4  C   1.14431   1.13723   1.06223   1.09657
    5  C   1.14567   1.12642   1.07515   1.10799
    6  C   1.13445   1.07583   1.01575   0.89661
    7  H   0.75128
    8  H   0.84759
    9  H   0.85208
   10  H   0.85585
   11  H   0.85132
   12  H   0.86907
   13  H   0.87727
   14  H   0.84354
   15  H   0.84091
 *******************************************************************************
 ** Site#: 24072        For non-commercial use only    Version 19.090L 64BITS **
 *******************************************************************************
 ** Cite this program as: MOPAC2016, Version: 19.090L, James J. P. Stewart,   **
 ** Stewart Computational Chemistry, web-site: HTTP://OpenMOPAC.net.          **
 *******************************************************************************
 **                                                                           **
 **                                MOPAC2016                                  **
 **                                                                           **
 *******************************************************************************

                              PM6 CALCULATION RESULTS

 *******************************************************************************
 *  CALCULATION DONE:                                Sat Jan  4 20:13:00 2020  *
 *  PM6        - The PM6 Hamiltonian to be used
 *  GEO-OK     - OVERRIDE INTERATOMIC DISTANCE AND OTHER SAFETY CHECKS
 *
 *
 *
 *                 CHARGE ON SYSTEM = 0
 *
 *
 *
 *  1SCF       - DO 1 SCF AND THEN STOP 
 *  T=         - A TIME OF 172800.0 SECONDS REQUESTED
 *  DUMP=N     - RESTART FILE WRITTEN EVERY  7200.000 SECONDS
 *  RELSCF     - DEFAULT SCF CRITERION MULTIPLIED BY 0.0010
 *              (DEFAULT SCF CRITERION = 0.00010)
 *  GRADIENTS  - ALL GRADIENTS TO BE PRINTED
 *******************************************************************************
PM6 grad 1scf relscf=0.001 geo-ok charge=0
 handlarbar template for mopac
 calculate energy and gradients
   ATOM   CHEMICAL          X               Y               Z
  NUMBER   SYMBOL      (ANGSTROMS)     (ANGSTROMS)     (ANGSTROMS)
 
     1       C          0.01332300  *   0.04604400  *  -0.44802400  *
     2       C          0.08199300  *  -0.23055600  *   3.35346000  *
     3       H          1.17325000  *  -0.23765100  *   3.37459000  *
     4       C         -0.56669900  *   1.03612000  *   3.36990000  *
     5       C         -0.64164500  *  -1.39788000  *   3.13793000  *
     6       C         -0.31863900  *  -1.10286000  *   0.27657600  *
     7       H          0.10471300  *   1.12954000  *   1.43047000  *
     8       H         -1.65412000  *   1.06436000  *   3.42208000  *
     9       H         -0.14202300  *   1.78143000  *   4.04111000  *
    10       H         -1.72753000  *  -1.37516000  *   3.05512000  *
    11       H         -0.32234200  *  -2.29838000  *   3.66077000  *
    12       H         -0.80373700  *  -1.90958000  *  -0.27122600  *
    13       H          0.46113600  *  -1.49392000  *   0.93372900  *
    14       H          1.05583000  *   0.31856500  *  -0.56377800  *
    15       H         -0.60708600  *   0.37816500  *  -1.27143000  *
 


          CARTESIAN COORDINATES 

    NO.       ATOM           X           Y           Z

     1         C          0.0133      0.0460     -0.4480
     2         C          0.0820     -0.2306      3.3535
     3         H          1.1732     -0.2377      3.3746
     4         C         -0.5667      1.0361      3.3699
     5         C         -0.6416     -1.3979      3.1379
     6         C         -0.3186     -1.1029      0.2766
     7         H          0.1047      1.1295      1.4305
     8         H         -1.6541      1.0644      3.4221
     9         H         -0.1420      1.7814      4.0411
    10         H         -1.7275     -1.3752      3.0551
    11         H         -0.3223     -2.2984      3.6608
    12         H         -0.8037     -1.9096     -0.2712
    13         H          0.4611     -1.4939      0.9337
    14         H          1.0558      0.3186     -0.5638
    15         H         -0.6071      0.3782     -1.2714

 General Reference for PM6:
 "Optimization of Parameters for Semiempirical Methods V: Modification of NDDO Approximations
 and Application to 70 Elements", J. J. P. Stewart, J. Mol. Mod., 13, 1173-1213 (2007)
 URL: http://www.springerlink.com/content/ar33482301010477/fulltext.pdf

           Empirical Formula: C5 H10  =    15 atoms



      MOLECULAR POINT GROUP   :   C1  


      RHF CALCULATION, NO. OF DOUBLY OCCUPIED LEVELS = 15

  SCF CRITERION =    0.1000E-06

 -------------------------------------------------------------------------------
 PM6 grad 1scf relscf=0.001 geo-ok charge=0
 handlarbar template for mopac
 calculate energy and gradients


     1SCF WAS SPECIFIED, SO BFGS WAS NOT USED                 
     SCF FIELD WAS ACHIEVED                                   


                              PM6 CALCULATION
                                                       MOPAC2016 (Version: 19.090L)
                                                       Sat Jan  4 20:13:00 2020




          FINAL HEAT OF FORMATION =        157.95020 KCAL/MOL =     660.86363 KJ/MOL


          TOTAL ENERGY            =       -741.27418 EV
          ELECTRONIC ENERGY       =      -2927.98826 EV  POINT GROUP:     C1  
          CORE-CORE REPULSION     =       2186.71408 EV
          COSMO AREA              =        141.01 SQUARE ANGSTROMS
          COSMO VOLUME            =        130.37 CUBIC ANGSTROMS

          GRADIENT NORM           =        208.74905 = 53.89877 PER ATOM
          IONIZATION POTENTIAL    =          7.759897 EV
          HOMO LUMO ENERGIES (EV) =         -7.760 -0.249
          NO. OF FILLED LEVELS    =         15
          MOLECULAR WEIGHT        =         70.1340

          MOLECULAR DIMENSIONS (Angstroms)

            Atom       Atom       Distance
            H    12    H     9     5.71469
            H    11    H    15     5.24085
            H    14    H     8     3.11787


          SCF CALCULATIONS        =          1
 
          WALL-CLOCK TIME         =          0.148 SECONDS
          COMPUTATION TIME        =          0.581 SECONDS

          LARGEST ATOMIC GRADIENTS

          Atom     Label                     Cartesian Gradients           Cartesian Coordinates       |Gradient|
                                           X          Y          Z        X          Y          Z

             6       C                 -71.665    -38.135     77.441   -0.31864   -1.10286    0.27658    112.192
             7       H                  35.528      4.173    -76.381    0.10471    1.12954    1.43047     84.343
             1       C                  15.423     71.692    -22.111    0.01332    0.04604   -0.44802     76.593
             5       C                 -14.905    -40.595    -57.510   -0.64165   -1.39788    3.13793     71.955
             4       C                 -24.840     -7.614     60.539   -0.56670    1.03612    3.36990     65.879
             2       C                  28.993     49.084     25.769    0.08199   -0.23056    3.35346     62.561
            12       H                  31.512    -10.515    -24.802   -0.80374   -1.90958   -0.27123     41.457
            14       H                   7.269    -19.950    -19.146    1.05583    0.31857   -0.56378     28.590
            11       H                  -6.022      3.293     27.198   -0.32234   -2.29838    3.66077     28.051
             9       H                  -1.585     -4.237     18.102   -0.14202    1.78143    4.04111     18.659



       FINAL  POINT  AND  DERIVATIVES

   PARAMETER     ATOM    TYPE            VALUE       GRADIENT
      1          1  C    CARTESIAN X     0.013323    15.422566  KCAL/ANGSTROM
      2          1  C    CARTESIAN Y     0.046044    71.692083  KCAL/ANGSTROM
      3          1  C    CARTESIAN Z    -0.448024   -22.111461  KCAL/ANGSTROM
      4          2  C    CARTESIAN X     0.081993    28.992881  KCAL/ANGSTROM
      5          2  C    CARTESIAN Y    -0.230556    49.083944  KCAL/ANGSTROM
      6          2  C    CARTESIAN Z     3.353460    25.768861  KCAL/ANGSTROM
      7          3  H    CARTESIAN X     1.173250     2.010721  KCAL/ANGSTROM
      8          3  H    CARTESIAN Y    -0.237651     3.755020  KCAL/ANGSTROM
      9          3  H    CARTESIAN Z     3.374590    -9.539787  KCAL/ANGSTROM
     10          4  C    CARTESIAN X    -0.566699   -24.839633  KCAL/ANGSTROM
     11          4  C    CARTESIAN Y     1.036120    -7.614095  KCAL/ANGSTROM
     12          4  C    CARTESIAN Z     3.369900    60.539468  KCAL/ANGSTROM
     13          5  C    CARTESIAN X    -0.641645   -14.904579  KCAL/ANGSTROM
     14          5  C    CARTESIAN Y    -1.397880   -40.595468  KCAL/ANGSTROM
     15          5  C    CARTESIAN Z     3.137930   -57.510461  KCAL/ANGSTROM
     16          6  C    CARTESIAN X    -0.318639   -71.664592  KCAL/ANGSTROM
     17          6  C    CARTESIAN Y    -1.102860   -38.134859  KCAL/ANGSTROM
     18          6  C    CARTESIAN Z     0.276576    77.440727  KCAL/ANGSTROM
     19          7  H    CARTESIAN X     0.104713    35.528045  KCAL/ANGSTROM
     20          7  H    CARTESIAN Y     1.129540     4.173160  KCAL/ANGSTROM
     21          7  H    CARTESIAN Z     1.430470   -76.381479  KCAL/ANGSTROM
     22          8  H    CARTESIAN X    -1.654120    -7.267796  KCAL/ANGSTROM
     23          8  H    CARTESIAN Y     1.064360    -3.242613  KCAL/ANGSTROM
     24          8  H    CARTESIAN Z     3.422080    11.618764  KCAL/ANGSTROM
     25          9  H    CARTESIAN X    -0.142023    -1.584549  KCAL/ANGSTROM
     26          9  H    CARTESIAN Y     1.781430    -4.237208  KCAL/ANGSTROM
     27          9  H    CARTESIAN Z     4.041110    18.101947  KCAL/ANGSTROM
     28         10  H    CARTESIAN X    -1.727530    -9.289022  KCAL/ANGSTROM
     29         10  H    CARTESIAN Y    -1.375160     0.339505  KCAL/ANGSTROM
     30         10  H    CARTESIAN Z     3.055120     9.078954  KCAL/ANGSTROM
     31         11  H    CARTESIAN X    -0.322342    -6.021982  KCAL/ANGSTROM
     32         11  H    CARTESIAN Y    -2.298380     3.293297  KCAL/ANGSTROM
     33         11  H    CARTESIAN Z     3.660770    27.197860  KCAL/ANGSTROM
     34         12  H    CARTESIAN X    -0.803737    31.511562  KCAL/ANGSTROM
     35         12  H    CARTESIAN Y    -1.909580   -10.514647  KCAL/ANGSTROM
     36         12  H    CARTESIAN Z    -0.271226   -24.802026  KCAL/ANGSTROM
     37         13  H    CARTESIAN X     0.461136    13.231691  KCAL/ANGSTROM
     38         13  H    CARTESIAN Y    -1.493920    -1.996823  KCAL/ANGSTROM
     39         13  H    CARTESIAN Z     0.933729   -11.927512  KCAL/ANGSTROM
     40         14  H    CARTESIAN X     1.055830     7.269363  KCAL/ANGSTROM
     41         14  H    CARTESIAN Y     0.318565   -19.949692  KCAL/ANGSTROM
     42         14  H    CARTESIAN Z    -0.563778   -19.145857  KCAL/ANGSTROM
     43         15  H    CARTESIAN X    -0.607086     1.605324  KCAL/ANGSTROM
     44         15  H    CARTESIAN Y     0.378165    -6.051604  KCAL/ANGSTROM
     45         15  H    CARTESIAN Z    -1.271430    -8.327997  KCAL/ANGSTROM




   ATOM   CHEMICAL          X               Y               Z
  NUMBER   SYMBOL      (ANGSTROMS)     (ANGSTROMS)     (ANGSTROMS)
 
     1       C          0.01332300  *   0.04604400  *  -0.44802400  *
     2       C          0.08199300  *  -0.23055600  *   3.35346000  *
     3       H          1.17325000  *  -0.23765100  *   3.37459000  *
     4       C         -0.56669900  *   1.03612000  *   3.36990000  *
     5       C         -0.64164500  *  -1.39788000  *   3.13793000  *
     6       C         -0.31863900  *  -1.10286000  *   0.27657600  *
     7       H          0.10471300  *   1.12954000  *   1.43047000  *
     8       H         -1.65412000  *   1.06436000  *   3.42208000  *
     9       H         -0.14202300  *   1.78143000  *   4.04111000  *
    10       H         -1.72753000  *  -1.37516000  *   3.05512000  *
    11       H         -0.32234200  *  -2.29838000  *   3.66077000  *
    12       H         -0.80373700  *  -1.90958000  *  -0.27122600  *
    13       H          0.46113600  *  -1.49392000  *   0.93372900  *
    14       H          1.05583000  *   0.31856500  *  -0.56377800  *
    15       H         -0.60708600  *   0.37816500  *  -1.27143000  *

                             CARTESIAN COORDINATES

   1    C        0.013323000     0.046044000    -0.448024000
   2    C        0.081993000    -0.230556000     3.353460000
   3    H        1.173250000    -0.237651000     3.374590000
   4    C       -0.566699000     1.036120000     3.369900000
   5    C       -0.641645000    -1.397880000     3.137930000
   6    C       -0.318639000    -1.102860000     0.276576000
   7    H        0.104713000     1.129540000     1.430470000
   8    H       -1.654120000     1.064360000     3.422080000
   9    H       -0.142023000     1.781430000     4.041110000
  10    H       -1.727530000    -1.375160000     3.055120000
  11    H       -0.322342000    -2.298380000     3.660770000
  12    H       -0.803737000    -1.909580000    -0.271226000
  13    H        0.461136000    -1.493920000     0.933729000
  14    H        1.055830000     0.318565000    -0.563778000
  15    H       -0.607086000     0.378165000    -1.271430000


           Empirical Formula: C5 H10  =    15 atoms



      MOLECULAR POINT GROUP   :   C1  


                  EIGENVALUES  
 -26.95657 -26.43531 -22.46348 -20.50378 -18.91411 -15.92346 -15.28225 -14.41096
 -13.89929 -12.70739 -12.14553 -11.86101 -11.04683  -9.94976  -7.75990  -0.24890
   0.47191   1.71638   5.12025   5.32673   5.45936   5.79761   5.99897   6.02710
   6.21029   6.27095   6.62974   6.81128   7.11097   7.35446


              NET ATOMIC CHARGES AND DIPOLE CONTRIBUTIONS

  ATOM NO.   TYPE          CHARGE      No. of ELECS.   s-Pop       p-Pop       
    1          C          -0.392492        4.3925     1.13527     3.25722
    2          C          -0.000311        4.0003     1.11078     2.88953
    3          H           0.112822        0.8872     0.88718
    4          C          -0.498076        4.4981     1.14024     3.35783
    5          C          -0.497237        4.4972     1.13741     3.35983
    6          C          -0.189679        4.1897     1.14393     3.04574
    7          H           0.252478        0.7475     0.74752
    8          H           0.153543        0.8465     0.84646
    9          H           0.149126        0.8509     0.85087
   10          H           0.148512        0.8515     0.85149
   11          H           0.150533        0.8495     0.84947
   12          H           0.152003        0.8480     0.84800
   13          H           0.148344        0.8517     0.85166
   14          H           0.157590        0.8424     0.84241
   15          H           0.152845        0.8472     0.84716
 DIPOLE           X         Y         Z       TOTAL
 POINT-CHG.     1.224     0.497    -2.054     2.442
 HYBRID        -0.051    -0.008     0.274     0.279
 SUM            1.173     0.490    -1.780     2.187


          ATOMIC ORBITAL ELECTRON POPULATIONS

     Atom    s        px        py        pz   
    1  C   1.13527   1.10240   1.09815   1.05667
    2  C   1.11078   1.03372   0.96274   0.89307
    3  H   0.88718
    4  C   1.14024   1.13714   1.08202   1.13868
    5  C   1.13741   1.13154   1.07357   1.15472
    6  C   1.14393   1.07282   0.98492   0.98800
    7  H   0.74752
    8  H   0.84646
    9  H   0.85087
   10  H   0.85149
   11  H   0.84947
   12  H   0.84800
   13  H   0.85166
   14  H   0.84241
   15  H   0.84716
 *******************************************************************************
 ** Site#: 24072        For non-commercial use only    Version 19.090L 64BITS **
 *******************************************************************************
 ** Cite this program as: MOPAC2016, Version: 19.090L, James J. P. Stewart,   **
 ** Stewart Computational Chemistry, web-site: HTTP://OpenMOPAC.net.          **
 *******************************************************************************
 **                                                                           **
 **                                MOPAC2016                                  **
 **                                                                           **
 *******************************************************************************

                              PM6 CALCULATION RESULTS

 *******************************************************************************
 *  CALCULATION DONE:                                Sat Jan  4 20:13:00 2020  *
 *  PM6        - The PM6 Hamiltonian to be used
 *  GEO-OK     - OVERRIDE INTERATOMIC DISTANCE AND OTHER SAFETY CHECKS
 *
 *
 *
 *                 CHARGE ON SYSTEM = 0
 *
 *
 *
 *  1SCF       - DO 1 SCF AND THEN STOP 
 *  T=         - A TIME OF 172800.0 SECONDS REQUESTED
 *  DUMP=N     - RESTART FILE WRITTEN EVERY  7200.000 SECONDS
 *  RELSCF     - DEFAULT SCF CRITERION MULTIPLIED BY 0.0010
 *              (DEFAULT SCF CRITERION = 0.00010)
 *  GRADIENTS  - ALL GRADIENTS TO BE PRINTED
 *******************************************************************************
PM6 grad 1scf relscf=0.001 geo-ok charge=0
 handlarbar template for mopac
 calculate energy and gradients
   ATOM   CHEMICAL          X               Y               Z
  NUMBER   SYMBOL      (ANGSTROMS)     (ANGSTROMS)     (ANGSTROMS)
 
     1       C          0.22623700  *  -0.01336400  *  -0.59585400  *
     2       C          0.13624400  *  -0.25391100  *   3.38611000  *
     3       H          1.22458000  *  -0.17027000  *   3.38820000  *
     4       C         -0.60899100  *   0.97935300  *   3.17521000  *
     5       C         -0.48360200  *  -1.45953000  *   3.47246000  *
     6       C         -0.51963300  *  -0.94731800  *   0.05065500  *
     7       H         -0.18853500  *   1.14516000  *   1.64940000  *
     8       H         -1.69631000  *   0.90785100  *   3.26356000  *
     9       H         -0.26028200  *   1.81197000  *   3.79234000  *
    10       H         -1.56122000  *  -1.57066000  *   3.46608000  *
    11       H          0.01622700  *  -2.33014000  *   3.87827000  *
    12       H         -1.26867000  *  -1.53804000  *  -0.46202600  *
    13       H         -0.09972000  *  -1.45719000  *   0.91171900  *
    14       H          1.24565000  *   0.21478200  *  -0.31602800  *
    15       H         -0.05555900  *   0.38954700  *  -1.55882000  *
 


          CARTESIAN COORDINATES 

    NO.       ATOM           X           Y           Z

     1         C          0.2262     -0.0134     -0.5959
     2         C          0.1362     -0.2539      3.3861
     3         H          1.2246     -0.1703      3.3882
     4         C         -0.6090      0.9794      3.1752
     5         C         -0.4836     -1.4595      3.4725
     6         C         -0.5196     -0.9473      0.0507
     7         H         -0.1885      1.1452      1.6494
     8         H         -1.6963      0.9079      3.2636
     9         H         -0.2603      1.8120      3.7923
    10         H         -1.5612     -1.5707      3.4661
    11         H          0.0162     -2.3301      3.8783
    12         H         -1.2687     -1.5380     -0.4620
    13         H         -0.0997     -1.4572      0.9117
    14         H          1.2456      0.2148     -0.3160
    15         H         -0.0556      0.3895     -1.5588

 General Reference for PM6:
 "Optimization of Parameters for Semiempirical Methods V: Modification of NDDO Approximations
 and Application to 70 Elements", J. J. P. Stewart, J. Mol. Mod., 13, 1173-1213 (2007)
 URL: http://www.springerlink.com/content/ar33482301010477/fulltext.pdf

           Empirical Formula: C5 H10  =    15 atoms



      MOLECULAR POINT GROUP   :   C1  


      RHF CALCULATION, NO. OF DOUBLY OCCUPIED LEVELS = 15

  SCF CRITERION =    0.1000E-06

 -------------------------------------------------------------------------------
 PM6 grad 1scf relscf=0.001 geo-ok charge=0
 handlarbar template for mopac
 calculate energy and gradients


     1SCF WAS SPECIFIED, SO BFGS WAS NOT USED                 
     SCF FIELD WAS ACHIEVED                                   


                              PM6 CALCULATION
                                                       MOPAC2016 (Version: 19.090L)
                                                       Sat Jan  4 20:13:00 2020




          FINAL HEAT OF FORMATION =         75.62167 KCAL/MOL =     316.40108 KJ/MOL


          TOTAL ENERGY            =       -744.84428 EV
          ELECTRONIC ENERGY       =      -2905.20155 EV  POINT GROUP:     C1  
          CORE-CORE REPULSION     =       2160.35726 EV
          COSMO AREA              =        143.22 SQUARE ANGSTROMS
          COSMO VOLUME            =        132.29 CUBIC ANGSTROMS

          GRADIENT NORM           =        203.55907 = 52.55872 PER ATOM
          IONIZATION POTENTIAL    =          9.164110 EV
          HOMO LUMO ENERGIES (EV) =         -9.164  0.793
          NO. OF FILLED LEVELS    =         15
          MOLECULAR WEIGHT        =         70.1340

          MOLECULAR DIMENSIONS (Angstroms)

            Atom       Atom       Distance
            H    15    H    11     6.07979
            H    12    H     9     4.99660
            H    14    H     8     3.35410


          SCF CALCULATIONS        =          1
 
          WALL-CLOCK TIME         =          0.172 SECONDS
          COMPUTATION TIME        =          0.693 SECONDS

          LARGEST ATOMIC GRADIENTS

          Atom     Label                     Cartesian Gradients           Cartesian Coordinates       |Gradient|
                                           X          Y          Z        X          Y          Z

             7       H                  39.828      5.682   -123.010   -0.18854    1.14516    1.64940    129.422
             4       C                 -31.924    -16.384    109.574   -0.60899    0.97935    3.17521    115.300
             6       C                 -52.907     -3.927     39.334   -0.51963   -0.94732    0.05066     66.043
             1       C                  20.004     38.432     -8.686    0.22624   -0.01336   -0.59585     44.188
             2       C                  15.864     38.980      3.737    0.13624   -0.25391    3.38611     42.250
             5       C                 -13.244    -27.064    -28.333   -0.48360   -1.45953    3.47246     41.360
            12       H                  14.370    -14.689    -10.217   -1.26867   -1.53804   -0.46203     22.948
            14       H                   6.589    -11.058     -7.815    1.24565    0.21478   -0.31603     15.059
            11       H                  -1.043      1.783     14.796    0.01623   -2.33014    3.87827     14.940
            13       H                   9.800     -5.173     -8.539   -0.09972   -1.45719    0.91172     13.990



       FINAL  POINT  AND  DERIVATIVES

   PARAMETER     ATOM    TYPE            VALUE       GRADIENT
      1          1  C    CARTESIAN X     0.226237    20.003912  KCAL/ANGSTROM
      2          1  C    CARTESIAN Y    -0.013364    38.431901  KCAL/ANGSTROM
      3          1  C    CARTESIAN Z    -0.595854    -8.686483  KCAL/ANGSTROM
      4          2  C    CARTESIAN X     0.136244    15.864154  KCAL/ANGSTROM
      5          2  C    CARTESIAN Y    -0.253911    38.980394  KCAL/ANGSTROM
      6          2  C    CARTESIAN Z     3.386110     3.736531  KCAL/ANGSTROM
      7          3  H    CARTESIAN X     1.224580     1.051795  KCAL/ANGSTROM
      8          3  H    CARTESIAN Y    -0.170270     0.564516  KCAL/ANGSTROM
      9          3  H    CARTESIAN Z     3.388200    -5.071644  KCAL/ANGSTROM
     10          4  C    CARTESIAN X    -0.608991   -31.924219  KCAL/ANGSTROM
     11          4  C    CARTESIAN Y     0.979353   -16.384212  KCAL/ANGSTROM
     12          4  C    CARTESIAN Z     3.175210   109.574038  KCAL/ANGSTROM
     13          5  C    CARTESIAN X    -0.483602   -13.243637  KCAL/ANGSTROM
     14          5  C    CARTESIAN Y    -1.459530   -27.064158  KCAL/ANGSTROM
     15          5  C    CARTESIAN Z     3.472460   -28.333461  KCAL/ANGSTROM
     16          6  C    CARTESIAN X    -0.519633   -52.906789  KCAL/ANGSTROM
     17          6  C    CARTESIAN Y    -0.947318    -3.926766  KCAL/ANGSTROM
     18          6  C    CARTESIAN Z     0.050655    39.333949  KCAL/ANGSTROM
     19          7  H    CARTESIAN X    -0.188535    39.827845  KCAL/ANGSTROM
     20          7  H    CARTESIAN Y     1.145160     5.681563  KCAL/ANGSTROM
     21          7  H    CARTESIAN Z     1.649400  -123.009845  KCAL/ANGSTROM
     22          8  H    CARTESIAN X    -1.696310    -6.269303  KCAL/ANGSTROM
     23          8  H    CARTESIAN Y     0.907851    -2.150460  KCAL/ANGSTROM
     24          8  H    CARTESIAN Z     3.263560     8.865372  KCAL/ANGSTROM
     25          9  H    CARTESIAN X    -0.260282    -0.110529  KCAL/ANGSTROM
     26          9  H    CARTESIAN Y     1.811970    -0.798485  KCAL/ANGSTROM
     27          9  H    CARTESIAN Z     3.792340    13.096225  KCAL/ANGSTROM
     28         10  H    CARTESIAN X    -1.561220    -4.086319  KCAL/ANGSTROM
     29         10  H    CARTESIAN Y    -1.570660     0.098158  KCAL/ANGSTROM
     30         10  H    CARTESIAN Z     3.466080     5.930160  KCAL/ANGSTROM
     31         11  H    CARTESIAN X     0.016227    -1.043127  KCAL/ANGSTROM
     32         11  H    CARTESIAN Y    -2.330140     1.783114  KCAL/ANGSTROM
     33         11  H    CARTESIAN Z     3.878270    14.796295  KCAL/ANGSTROM
     34         12  H    CARTESIAN X    -1.268670    14.369663  KCAL/ANGSTROM
     35         12  H    CARTESIAN Y    -1.538040   -14.688872  KCAL/ANGSTROM
     36         12  H    CARTESIAN Z    -0.462026   -10.216536  KCAL/ANGSTROM
     37         13  H    CARTESIAN X    -0.099720     9.800083  KCAL/ANGSTROM
     38         13  H    CARTESIAN Y    -1.457190    -5.172996  KCAL/ANGSTROM
     39         13  H    CARTESIAN Z     0.911719    -8.539240  KCAL/ANGSTROM
     40         14  H    CARTESIAN X     1.245650     6.589495  KCAL/ANGSTROM
     41         14  H    CARTESIAN Y     0.214782   -11.057816  KCAL/ANGSTROM
     42         14  H    CARTESIAN Z    -0.316028    -7.814714  KCAL/ANGSTROM
     43         15  H    CARTESIAN X    -0.055559     2.076977  KCAL/ANGSTROM
     44         15  H    CARTESIAN Y     0.389547    -4.295882  KCAL/ANGSTROM
     45         15  H    CARTESIAN Z    -1.558820    -3.660647  KCAL/ANGSTROM




   ATOM   CHEMICAL          X               Y               Z
  NUMBER   SYMBOL      (ANGSTROMS)     (ANGSTROMS)     (ANGSTROMS)
 
     1       C          0.22623700  *  -0.01336400  *  -0.59585400  *
     2       C          0.13624400  *  -0.25391100  *   3.38611000  *
     3       H          1.22458000  *  -0.17027000  *   3.38820000  *
     4       C         -0.60899100  *   0.97935300  *   3.17521000  *
     5       C         -0.48360200  *  -1.45953000  *   3.47246000  *
     6       C         -0.51963300  *  -0.94731800  *   0.05065500  *
     7       H         -0.18853500  *   1.14516000  *   1.64940000  *
     8       H         -1.69631000  *   0.90785100  *   3.26356000  *
     9       H         -0.26028200  *   1.81197000  *   3.79234000  *
    10       H         -1.56122000  *  -1.57066000  *   3.46608000  *
    11       H          0.01622700  *  -2.33014000  *   3.87827000  *
    12       H         -1.26867000  *  -1.53804000  *  -0.46202600  *
    13       H         -0.09972000  *  -1.45719000  *   0.91171900  *
    14       H          1.24565000  *   0.21478200  *  -0.31602800  *
    15       H         -0.05555900  *   0.38954700  *  -1.55882000  *

                             CARTESIAN COORDINATES

   1    C        0.226237000    -0.013364000    -0.595854000
   2    C        0.136244000    -0.253911000     3.386110000
   3    H        1.224580000    -0.170270000     3.388200000
   4    C       -0.608991000     0.979353000     3.175210000
   5    C       -0.483602000    -1.459530000     3.472460000
   6    C       -0.519633000    -0.947318000     0.050655000
   7    H       -0.188535000     1.145160000     1.649400000
   8    H       -1.696310000     0.907851000     3.263560000
   9    H       -0.260282000     1.811970000     3.792340000
  10    H       -1.561220000    -1.570660000     3.466080000
  11    H        0.016227000    -2.330140000     3.878270000
  12    H       -1.268670000    -1.538040000    -0.462026000
  13    H       -0.099720000    -1.457190000     0.911719000
  14    H        1.245650000     0.214782000    -0.316028000
  15    H       -0.055559000     0.389547000    -1.558820000


           Empirical Formula: C5 H10  =    15 atoms



      MOLECULAR POINT GROUP   :   C1  


                  EIGENVALUES  
 -27.22919 -26.60820 -22.99910 -20.55261 -19.17546 -16.00594 -15.61255 -14.42348
 -14.21921 -12.89720 -12.27021 -11.93739 -11.78508 -10.46377  -9.16411   0.79326
   1.23637   2.67099   4.98577   5.44537   5.53898   5.62902   6.07953   6.17456
   6.34169   6.35053   6.46317   6.54436   6.87206   6.94142


              NET ATOMIC CHARGES AND DIPOLE CONTRIBUTIONS

  ATOM NO.   TYPE          CHARGE      No. of ELECS.   s-Pop       p-Pop       
    1          C          -0.317559        4.3176     1.12505     3.19251
    2          C          -0.021097        4.0211     1.10709     2.91401
    3          H           0.120863        0.8791     0.87914
    4          C          -0.492752        4.4928     1.12521     3.36754
    5          C          -0.433324        4.4333     1.12478     3.30854
    6          C          -0.270659        4.2707     1.13096     3.13970
    7          H           0.212019        0.7880     0.78798
    8          H           0.155262        0.8447     0.84474
    9          H           0.152278        0.8477     0.84772
   10          H           0.153159        0.8468     0.84684
   11          H           0.149511        0.8505     0.85049
   12          H           0.147446        0.8526     0.85255
   13          H           0.155003        0.8450     0.84500
   14          H           0.145033        0.8550     0.85497
   15          H           0.144818        0.8552     0.85518
 DIPOLE           X         Y         Z       TOTAL
 POINT-CHG.     0.548     0.485    -1.006     1.244
 HYBRID         0.008    -0.078     0.110     0.135
 SUM            0.556     0.407    -0.896     1.130


          ATOMIC ORBITAL ELECTRON POPULATIONS

     Atom    s        px        py        pz   
    1  C   1.12505   1.06266   1.05027   1.07959
    2  C   1.10709   1.03941   0.95460   0.92000
    3  H   0.87914
    4  C   1.12521   1.13613   1.08032   1.15109
    5  C   1.12478   1.13321   1.06432   1.11101
    6  C   1.13096   1.06985   0.99163   1.07823
    7  H   0.78798
    8  H   0.84474
    9  H   0.84772
   10  H   0.84684
   11  H   0.85049
   12  H   0.85255
   13  H   0.84500
   14  H   0.85497
   15  H   0.85518
 *******************************************************************************
 ** Site#: 24072        For non-commercial use only    Version 19.090L 64BITS **
 *******************************************************************************
 ** Cite this program as: MOPAC2016, Version: 19.090L, James J. P. Stewart,   **
 ** Stewart Computational Chemistry, web-site: HTTP://OpenMOPAC.net.          **
 *******************************************************************************
 **                                                                           **
 **                                MOPAC2016                                  **
 **                                                                           **
 *******************************************************************************

                              PM6 CALCULATION RESULTS

 *******************************************************************************
 *  CALCULATION DONE:                                Sat Jan  4 20:13:00 2020  *
 *  PM6        - The PM6 Hamiltonian to be used
 *  GEO-OK     - OVERRIDE INTERATOMIC DISTANCE AND OTHER SAFETY CHECKS
 *
 *
 *
 *                 CHARGE ON SYSTEM = 0
 *
 *
 *
 *  1SCF       - DO 1 SCF AND THEN STOP 
 *  T=         - A TIME OF 172800.0 SECONDS REQUESTED
 *  DUMP=N     - RESTART FILE WRITTEN EVERY  7200.000 SECONDS
 *  RELSCF     - DEFAULT SCF CRITERION MULTIPLIED BY 0.0010
 *              (DEFAULT SCF CRITERION = 0.00010)
 *  GRADIENTS  - ALL GRADIENTS TO BE PRINTED
 *******************************************************************************
PM6 grad 1scf relscf=0.001 geo-ok charge=0
 handlarbar template for mopac
 calculate energy and gradients
   ATOM   CHEMICAL          X               Y               Z
  NUMBER   SYMBOL      (ANGSTROMS)     (ANGSTROMS)     (ANGSTROMS)
 
     1       C          0.32733100  *  -0.09044300  *  -0.69586600  *
     2       C          0.16794900  *  -0.30510400  *   3.41826000  *
     3       H          1.25248000  *  -0.17759500  *   3.44922000  *
     4       C         -0.58602100  *   0.91261300  *   3.00084000  *
     5       C         -0.40456600  *  -1.46793000  *   3.72540000  *
     6       C         -0.54618000  *  -0.91243900  *  -0.12771900  *
     7       H         -0.39302600  *   1.14665000  *   1.94246000  *
     8       H         -1.67261000  *   0.80127000  *   3.11107000  *
     9       H         -0.28782300  *   1.78979000  *   3.59037000  *
    10       H         -1.47056000  *  -1.63611000  *   3.70997000  *
    11       H          0.15404500  *  -2.34258000  *   4.02183000  *
    12       H         -1.43695000  *  -1.27294000  *  -0.62363000  *
    13       H         -0.44055600  *  -1.29169000  *   0.88247500  *
    14       H          1.21955000  *   0.26667300  *  -0.19996000  *
    15       H          0.22336200  *   0.28809500  *  -1.70345000  *
 


          CARTESIAN COORDINATES 

    NO.       ATOM           X           Y           Z

     1         C          0.3273     -0.0904     -0.6959
     2         C          0.1679     -0.3051      3.4183
     3         H          1.2525     -0.1776      3.4492
     4         C         -0.5860      0.9126      3.0008
     5         C         -0.4046     -1.4679      3.7254
     6         C         -0.5462     -0.9124     -0.1277
     7         H         -0.3930      1.1466      1.9425
     8         H         -1.6726      0.8013      3.1111
     9         H         -0.2878      1.7898      3.5904
    10         H         -1.4706     -1.6361      3.7100
    11         H          0.1540     -2.3426      4.0218
    12         H         -1.4369     -1.2729     -0.6236
    13         H         -0.4406     -1.2917      0.8825
    14         H          1.2195      0.2667     -0.2000
    15         H          0.2234      0.2881     -1.7035

 General Reference for PM6:
 "Optimization of Parameters for Semiempirical Methods V: Modification of NDDO Approximations
 and Application to 70 Elements", J. J. P. Stewart, J. Mol. Mod., 13, 1173-1213 (2007)
 URL: http://www.springerlink.com/content/ar33482301010477/fulltext.pdf

           Empirical Formula: C5 H10  =    15 atoms



      MOLECULAR POINT GROUP   :   C1  


      RHF CALCULATION, NO. OF DOUBLY OCCUPIED LEVELS = 15

  SCF CRITERION =    0.1000E-06

 -------------------------------------------------------------------------------
 PM6 grad 1scf relscf=0.001 geo-ok charge=0
 handlarbar template for mopac
 calculate energy and gradients


     1SCF WAS SPECIFIED, SO BFGS WAS NOT USED                 
     SCF FIELD WAS ACHIEVED                                   


                              PM6 CALCULATION
                                                       MOPAC2016 (Version: 19.090L)
                                                       Sat Jan  4 20:13:00 2020




          FINAL HEAT OF FORMATION =         20.73422 KCAL/MOL =      86.75199 KJ/MOL


          TOTAL ENERGY            =       -747.22443 EV
          ELECTRONIC ENERGY       =      -2899.71838 EV  POINT GROUP:     C1  
          CORE-CORE REPULSION     =       2152.49395 EV
          COSMO AREA              =        144.66 SQUARE ANGSTROMS
          COSMO VOLUME            =        132.54 CUBIC ANGSTROMS

          GRADIENT NORM           =          0.46612 = 0.12035 PER ATOM
          IONIZATION POTENTIAL    =         10.049198 EV
          HOMO LUMO ENERGIES (EV) =        -10.049  1.197
          NO. OF FILLED LEVELS    =         15
          MOLECULAR WEIGHT        =         70.1340

          MOLECULAR DIMENSIONS (Angstroms)

            Atom       Atom       Distance
            H    15    H    11     6.30112
            H    12    H     9     4.69247
            H    14    H     8     3.23849


          SCF CALCULATIONS        =          1
 
          WALL-CLOCK TIME         =          0.195 SECONDS
          COMPUTATION TIME        =          0.831 SECONDS

          LARGEST ATOMIC GRADIENTS

          Atom     Label                     Cartesian Gradients           Cartesian Coordinates       |Gradient|
                                           X          Y          Z        X          Y          Z

             5       C                  -0.094     -0.176      0.060   -0.40457   -1.46793    3.72540      0.209
             1       C                   0.127      0.111     -0.102    0.32733   -0.09044   -0.69587      0.197
             6       C                  -0.092     -0.109      0.109   -0.54618   -0.91244   -0.12772      0.179
             4       C                  -0.054      0.141     -0.032   -0.58602    0.91261    3.00084      0.154
             2       C                   0.150      0.023     -0.023    0.16795   -0.30510    3.41826      0.153
            14       H                  -0.077     -0.036     -0.043    1.21955    0.26667   -0.19996      0.095
            11       H                  -0.033      0.082     -0.020    0.15405   -2.34258    4.02183      0.090
             9       H                  -0.026     -0.064     -0.047   -0.28782    1.78979    3.59037      0.083
            15       H                   0.004     -0.017      0.074    0.22336    0.28809   -1.70345      0.076
             3       H                  -0.068     -0.012     -0.002    1.25248   -0.17760    3.44922      0.069



       FINAL  POINT  AND  DERIVATIVES

   PARAMETER     ATOM    TYPE            VALUE       GRADIENT
      1          1  C    CARTESIAN X     0.327331     0.126559  KCAL/ANGSTROM
      2          1  C    CARTESIAN Y    -0.090443     0.110755  KCAL/ANGSTROM
      3          1  C    CARTESIAN Z    -0.695866    -0.102415  KCAL/ANGSTROM
      4          2  C    CARTESIAN X     0.167949     0.149523  KCAL/ANGSTROM
      5          2  C    CARTESIAN Y    -0.305104     0.022727  KCAL/ANGSTROM
      6          2  C    CARTESIAN Z     3.418260    -0.023074  KCAL/ANGSTROM
      7          3  H    CARTESIAN X     1.252480    -0.068260  KCAL/ANGSTROM
      8          3  H    CARTESIAN Y    -0.177595    -0.012229  KCAL/ANGSTROM
      9          3  H    CARTESIAN Z     3.449220    -0.002033  KCAL/ANGSTROM
     10          4  C    CARTESIAN X    -0.586021    -0.053969  KCAL/ANGSTROM
     11          4  C    CARTESIAN Y     0.912613     0.140727  KCAL/ANGSTROM
     12          4  C    CARTESIAN Z     3.000840    -0.032301  KCAL/ANGSTROM
     13          5  C    CARTESIAN X    -0.404566    -0.094144  KCAL/ANGSTROM
     14          5  C    CARTESIAN Y    -1.467930    -0.176396  KCAL/ANGSTROM
     15          5  C    CARTESIAN Z     3.725400     0.060266  KCAL/ANGSTROM
     16          6  C    CARTESIAN X    -0.546180    -0.091917  KCAL/ANGSTROM
     17          6  C    CARTESIAN Y    -0.912439    -0.108818  KCAL/ANGSTROM
     18          6  C    CARTESIAN Z    -0.127719     0.108726  KCAL/ANGSTROM
     19          7  H    CARTESIAN X    -0.393026    -0.007816  KCAL/ANGSTROM
     20          7  H    CARTESIAN Y     1.146650    -0.007879  KCAL/ANGSTROM
     21          7  H    CARTESIAN Z     1.942460     0.065318  KCAL/ANGSTROM
     22          8  H    CARTESIAN X    -1.672610     0.065348  KCAL/ANGSTROM
     23          8  H    CARTESIAN Y     0.801270     0.006053  KCAL/ANGSTROM
     24          8  H    CARTESIAN Z     3.111070    -0.002652  KCAL/ANGSTROM
     25          9  H    CARTESIAN X    -0.287823    -0.025512  KCAL/ANGSTROM
     26          9  H    CARTESIAN Y     1.789790    -0.064089  KCAL/ANGSTROM
     27          9  H    CARTESIAN Z     3.590370    -0.046724  KCAL/ANGSTROM
     28         10  H    CARTESIAN X    -1.470560     0.067941  KCAL/ANGSTROM
     29         10  H    CARTESIAN Y    -1.636110     0.007916  KCAL/ANGSTROM
     30         10  H    CARTESIAN Z     3.709970     0.000346  KCAL/ANGSTROM
     31         11  H    CARTESIAN X     0.154045    -0.032548  KCAL/ANGSTROM
     32         11  H    CARTESIAN Y    -2.342580     0.082106  KCAL/ANGSTROM
     33         11  H    CARTESIAN Z     4.021830    -0.019618  KCAL/ANGSTROM
     34         12  H    CARTESIAN X    -1.436950     0.045195  KCAL/ANGSTROM
     35         12  H    CARTESIAN Y    -1.272940     0.014805  KCAL/ANGSTROM
     36         12  H    CARTESIAN Z    -0.623630     0.020510  KCAL/ANGSTROM
     37         13  H    CARTESIAN X    -0.440556    -0.007245  KCAL/ANGSTROM
     38         13  H    CARTESIAN Y    -1.291690     0.036937  KCAL/ANGSTROM
     39         13  H    CARTESIAN Z     0.882475    -0.057292  KCAL/ANGSTROM
     40         14  H    CARTESIAN X     1.219550    -0.076967  KCAL/ANGSTROM
     41         14  H    CARTESIAN Y     0.266673    -0.035875  KCAL/ANGSTROM
     42         14  H    CARTESIAN Z    -0.199960    -0.043329  KCAL/ANGSTROM
     43         15  H    CARTESIAN X     0.223362     0.003812  KCAL/ANGSTROM
     44         15  H    CARTESIAN Y     0.288095    -0.016740  KCAL/ANGSTROM
     45         15  H    CARTESIAN Z    -1.703450     0.074272  KCAL/ANGSTROM




   ATOM   CHEMICAL          X               Y               Z
  NUMBER   SYMBOL      (ANGSTROMS)     (ANGSTROMS)     (ANGSTROMS)
 
     1       C          0.32733100  *  -0.09044300  *  -0.69586600  *
     2       C          0.16794900  *  -0.30510400  *   3.41826000  *
     3       H          1.25248000  *  -0.17759500  *   3.44922000  *
     4       C         -0.58602100  *   0.91261300  *   3.00084000  *
     5       C         -0.40456600  *  -1.46793000  *   3.72540000  *
     6       C         -0.54618000  *  -0.91243900  *  -0.12771900  *
     7       H         -0.39302600  *   1.14665000  *   1.94246000  *
     8       H         -1.67261000  *   0.80127000  *   3.11107000  *
     9       H         -0.28782300  *   1.78979000  *   3.59037000  *
    10       H         -1.47056000  *  -1.63611000  *   3.70997000  *
    11       H          0.15404500  *  -2.34258000  *   4.02183000  *
    12       H         -1.43695000  *  -1.27294000  *  -0.62363000  *
    13       H         -0.44055600  *  -1.29169000  *   0.88247500  *
    14       H          1.21955000  *   0.26667300  *  -0.19996000  *
    15       H          0.22336200  *   0.28809500  *  -1.70345000  *

                             CARTESIAN COORDINATES

   1    C        0.327331000    -0.090443000    -0.695866000
   2    C        0.167949000    -0.305104000     3.418260000
   3    H        1.252480000    -0.177595000     3.449220000
   4    C       -0.586021000     0.912613000     3.000840000
   5    C       -0.404566000    -1.467930000     3.725400000
   6    C       -0.546180000    -0.912439000    -0.127719000
   7    H       -0.393026000     1.146650000     1.942460000
   8    H       -1.672610000     0.801270000     3.111070000
   9    H       -0.287823000     1.789790000     3.590370000
  10    H       -1.470560000    -1.636110000     3.709970000
  11    H        0.154045000    -2.342580000     4.021830000
  12    H       -1.436950000    -1.272940000    -0.623630000
  13    H       -0.440556000    -1.291690000     0.882475000
  14    H        1.219550000     0.266673000    -0.199960000
  15    H        0.223362000     0.288095000    -1.703450000


           Empirical Formula: C5 H10  =    15 atoms



      MOLECULAR POINT GROUP   :   C1  


                  EIGENVALUES  
 -27.79761 -26.77600 -24.19819 -20.53652 -19.53274 -16.00478 -15.94618 -14.45803
 -14.42948 -14.14874 -12.73543 -11.98596 -11.96202 -10.63082 -10.04920   1.19727
   1.31283   4.41154   5.40951   5.51968   5.72847   5.79430   5.91247   6.11797
   6.35671   6.39780   6.53773   6.57461   6.71819   6.81306


              NET ATOMIC CHARGES AND DIPOLE CONTRIBUTIONS

  ATOM NO.   TYPE          CHARGE      No. of ELECS.   s-Pop       p-Pop       
    1          C          -0.296240        4.2962     1.11603     3.18021
    2          C          -0.022946        4.0229     1.10293     2.92001
    3          H           0.125655        0.8743     0.87434
    4          C          -0.494559        4.4946     1.08140     3.41316
    5          C          -0.403770        4.4038     1.11739     3.28638
    6          C          -0.284467        4.2845     1.11878     3.16569
    7          H           0.168216        0.8318     0.83178
    8          H           0.160856        0.8391     0.83914
    9          H           0.159846        0.8402     0.84015
   10          H           0.154433        0.8456     0.84557
   11          H           0.152784        0.8472     0.84722
   12          H           0.141784        0.8582     0.85822
   13          H           0.153244        0.8468     0.84676
   14          H           0.142588        0.8574     0.85741
   15          H           0.142577        0.8574     0.85742
 DIPOLE           X         Y         Z       TOTAL
 POINT-CHG.     0.071     0.530    -0.129     0.550
 HYBRID        -0.085     0.056    -0.035     0.108
 SUM           -0.014     0.586    -0.164     0.609


          ATOMIC ORBITAL ELECTRON POPULATIONS

     Atom    s        px        py        pz   
    1  C   1.11603   1.05820   1.01933   1.10268
    2  C   1.10293   1.04225   0.94505   0.93271
    3  H   0.87434
    4  C   1.08140   1.15452   1.09105   1.16759
    5  C   1.11739   1.13616   1.06224   1.08798
    6  C   1.11878   1.05280   1.00611   1.10678
    7  H   0.83178
    8  H   0.83914
    9  H   0.84015
   10  H   0.84557
   11  H   0.84722
   12  H   0.85822
   13  H   0.84676
   14  H   0.85741
   15  H   0.85742

 **********************
 *                    *
 * JOB ENDED NORMALLY *
 *                    *
 **********************



 TOTAL JOB TIME:             0.38 SECONDS

 == MOPAC DONE ==
