********************************************************************************
*                       GENERAL UTILITY LATTICE PROGRAM                        *
*                                 Julian Gale                                  *
*                       Curtin Institute for Computation                       *
*                           Department of Chemistry                            *
*                    Curtin University, Western Australia                      *
********************************************************************************
* Version = 5.1.1 * Last modified =  25th August 2019                          *
********************************************************************************
*  optimise     - perform optimisation run                                     *
*  conp         - constant pressure calculation                                *
*  nosymmetry   - turn off symmetry after initial structure generation         *
*  lbfgs        - use limited memory BFGS update                               *
********************************************************************************

  Job Started  at 19:53.57  5th January    2020                               

  Number of CPUs =     1


  Total number of configurations input =      6

********************************************************************************
*  Input for Configuration =   1 : test                                        *
********************************************************************************

  Formula = C5H10                                                       

  Number of irreducible atoms/shells =      15


  Total number atoms/shells =      15

  Dimensionality = 0               :  Cluster


  Charge on cluster =   0.000000


  Initial cluster dipoles : x =      0.000000 e.Angs
                            y =      0.000000 e.Angs
                            z =      0.000000 e.Angs

  Temperature of configuration =  0.000     K 

  Symmetry number =      1

  Cartesian coordinates of cluster :

--------------------------------------------------------------------------------
   No.  Atomic       x           y          z         Charge      Occupancy
        Label      (Angs)      (Angs)     (Angs)        (e)         (Frac)  
--------------------------------------------------------------------------------
      1 C     c      0.0000 *    0.0000 *    0.0000 *   0.00000    1.000000    
      2 C     c      0.0000 *    0.0000 *    3.1214 *   0.00000    1.000000    
      3 H     c      1.0898 *    0.0000 *    3.0550 *   0.00000    1.000000    
      4 C     c     -0.6462 *    0.8233 *    3.9451 *   0.00000    1.000000    
      5 C     c     -0.6875     -0.9985      2.2372     0.00000    1.000000    
      6 C     c      0.0507 *   -1.2254 *    0.9091 *   0.00000    1.000000    
      7 H     c      0.4313 *    0.8806 *    0.4916 *   0.00000    1.000000    
      8 H     c     -1.7208 *    0.8610 *    4.0391 *   0.00000    1.000000    
      9 H     c     -0.1443 *    1.5274 *    4.5911 *   0.00000    1.000000    
     10 H     c     -1.7332 *   -0.6897 *    2.0329 *   0.00000    1.000000    
     11 H     c     -0.7672 *   -1.9613 *    2.7863 *   0.00000    1.000000    
     12 H     c     -0.3979 *   -2.0942 *    0.3878 *   0.00000    1.000000    
     13 H     c      1.1048 *   -1.5038 *    1.1055 *   0.00000    1.000000    
     14 H     c      0.5566 *   -0.1681 *   -0.9280 *   0.00000    1.000000    
     15 H     c     -1.0298 *    0.2570 *   -0.2729 *   0.00000    1.000000    
--------------------------------------------------------------------------------



********************************************************************************
*  Input for Configuration =   2 : test                                        *
********************************************************************************

  Formula = C5H10                                                       

  Number of irreducible atoms/shells =      15


  Total number atoms/shells =      15

  Dimensionality = 0               :  Cluster


  Charge on cluster =   0.000000


  Initial cluster dipoles : x =      0.000000 e.Angs
                            y =      0.000000 e.Angs
                            z =      0.000000 e.Angs

  Temperature of configuration =  0.000     K 

  Symmetry number =      1

  Cartesian coordinates of cluster :

--------------------------------------------------------------------------------
   No.  Atomic       x           y          z         Charge      Occupancy
        Label      (Angs)      (Angs)     (Angs)        (e)         (Frac)  
--------------------------------------------------------------------------------
      1 C     c     -0.0701 *    0.0087 *   -0.1126 *   0.00000    1.000000    
      2 C     c      0.0115 *   -0.1088 *    3.2068 *   0.00000    1.000000    
      3 H     c      1.1016 *   -0.1608 *    3.1971 *   0.00000    1.000000    
      4 C     c     -0.5996 *    0.9815 *    3.7444 *   0.00000    1.000000    
      5 C     c     -0.7388     -1.1490      2.5107     0.00000    1.000000    
      6 C     c     -0.0101 *   -1.2410 *    0.6739 *   0.00000    1.000000    
      7 H     c      0.3616 *    1.0204 *    0.8625 *   0.00000    1.000000    
      8 H     c     -1.6732 *    1.0349 *    3.8672 *   0.00000    1.000000    
      9 H     c     -0.0799 *    1.6382 *    4.4297 *   0.00000    1.000000    
     10 H     c     -1.8051 *   -0.9249 *    2.3422 *   0.00000    1.000000    
     11 H     c     -0.6992 *   -2.1059 *    3.0586 *   0.00000    1.000000    
     12 H     c     -0.3929 *   -2.1080 *    0.1155 *   0.00000    1.000000    
     13 H     c      0.9984 *   -1.4918 *    1.0355 *   0.00000    1.000000    
     14 H     c      0.7320 *    0.0953 *   -0.8441 *   0.00000    1.000000    
     15 H     c     -1.0297 *    0.2195 *   -0.5863 *   0.00000    1.000000    
--------------------------------------------------------------------------------



********************************************************************************
*  Input for Configuration =   3 : test                                        *
********************************************************************************

  Formula = C5H10                                                       

  Number of irreducible atoms/shells =      15


  Total number atoms/shells =      15

  Dimensionality = 0               :  Cluster


  Charge on cluster =   0.000000


  Initial cluster dipoles : x =      0.000000 e.Angs
                            y =      0.000000 e.Angs
                            z =      0.000000 e.Angs

  Temperature of configuration =  0.000     K 

  Symmetry number =      1

  Cartesian coordinates of cluster :

--------------------------------------------------------------------------------
   No.  Atomic       x           y          z         Charge      Occupancy
        Label      (Angs)      (Angs)     (Angs)        (e)         (Frac)  
--------------------------------------------------------------------------------
      1 C     c     -0.0910 *    0.0279 *   -0.2644 *   0.00000    1.000000    
      2 C     c      0.0362 *   -0.1852 *    3.2885 *   0.00000    1.000000    
      3 H     c      1.1257 *   -0.2452 *    3.3124 *   0.00000    1.000000    
      4 C     c     -0.5592 *    1.0442 *    3.5564 *   0.00000    1.000000    
      5 C     c     -0.7291     -1.2843      2.8050     0.00000    1.000000    
      6 C     c     -0.1182 *   -1.2055 *    0.4704 *   0.00000    1.000000    
      7 H     c      0.2796 *    1.0906 *    1.1778 *   0.00000    1.000000    
      8 H     c     -1.6393 *    1.1203 *    3.6344 *   0.00000    1.000000    
      9 H     c     -0.0731 *    1.7131 *    4.2599 *   0.00000    1.000000    
     10 H     c     -1.8074 *   -1.1441 *    2.6696 *   0.00000    1.000000    
     11 H     c     -0.5711 *   -2.2196 *    3.3545 *   0.00000    1.000000    
     12 H     c     -0.4794 *   -2.0668 *   -0.1001 *   0.00000    1.000000    
     13 H     c      0.8142 *   -1.4763 *    0.9796 *   0.00000    1.000000    
     14 H     c      0.8547 *    0.2747 *   -0.7379 *   0.00000    1.000000    
     15 H     c     -0.9361 *    0.2644 *   -0.9050 *   0.00000    1.000000    
--------------------------------------------------------------------------------



********************************************************************************
*  Input for Configuration =   4 : test                                        *
********************************************************************************

  Formula = C5H10                                                       

  Number of irreducible atoms/shells =      15


  Total number atoms/shells =      15

  Dimensionality = 0               :  Cluster


  Charge on cluster =   0.000000


  Initial cluster dipoles : x =      0.000000 e.Angs
                            y =      0.000000 e.Angs
                            z =      0.000000 e.Angs

  Temperature of configuration =  0.000     K 

  Symmetry number =      1

  Cartesian coordinates of cluster :

--------------------------------------------------------------------------------
   No.  Atomic       x           y          z         Charge      Occupancy
        Label      (Angs)      (Angs)     (Angs)        (e)         (Frac)  
--------------------------------------------------------------------------------
      1 C     c      0.0133 *    0.0460 *   -0.4480 *   0.00000    1.000000    
      2 C     c      0.0820 *   -0.2306 *    3.3535 *   0.00000    1.000000    
      3 H     c      1.1733 *   -0.2377 *    3.3746 *   0.00000    1.000000    
      4 C     c     -0.5667 *    1.0361 *    3.3699 *   0.00000    1.000000    
      5 C     c     -0.6416 *   -1.3979 *    3.1379 *   0.00000    1.000000    
      6 C     c     -0.3186 *   -1.1029 *    0.2766 *   0.00000    1.000000    
      7 H     c      0.1047      1.1295      1.4305     0.00000    1.000000    
      8 H     c     -1.6541 *    1.0644 *    3.4221 *   0.00000    1.000000    
      9 H     c     -0.1420 *    1.7814 *    4.0411 *   0.00000    1.000000    
     10 H     c     -1.7275 *   -1.3752 *    3.0551 *   0.00000    1.000000    
     11 H     c     -0.3223 *   -2.2984 *    3.6608 *   0.00000    1.000000    
     12 H     c     -0.8037 *   -1.9096 *   -0.2712 *   0.00000    1.000000    
     13 H     c      0.4611 *   -1.4939 *    0.9337 *   0.00000    1.000000    
     14 H     c      1.0558 *    0.3186 *   -0.5638 *   0.00000    1.000000    
     15 H     c     -0.6071 *    0.3782 *   -1.2714 *   0.00000    1.000000    
--------------------------------------------------------------------------------



********************************************************************************
*  Input for Configuration =   5 : test                                        *
********************************************************************************

  Formula = C5H10                                                       

  Number of irreducible atoms/shells =      15


  Total number atoms/shells =      15

  Dimensionality = 0               :  Cluster


  Charge on cluster =   0.000000


  Initial cluster dipoles : x =      0.000000 e.Angs
                            y =      0.000000 e.Angs
                            z =      0.000000 e.Angs

  Temperature of configuration =  0.000     K 

  Symmetry number =      1

  Cartesian coordinates of cluster :

--------------------------------------------------------------------------------
   No.  Atomic       x           y          z         Charge      Occupancy
        Label      (Angs)      (Angs)     (Angs)        (e)         (Frac)  
--------------------------------------------------------------------------------
      1 C     c      0.2262 *   -0.0134 *   -0.5959 *   0.00000    1.000000    
      2 C     c      0.1362 *   -0.2539 *    3.3861 *   0.00000    1.000000    
      3 H     c      1.2246 *   -0.1703 *    3.3882 *   0.00000    1.000000    
      4 C     c     -0.6090 *    0.9794 *    3.1752 *   0.00000    1.000000    
      5 C     c     -0.4836 *   -1.4595 *    3.4725 *   0.00000    1.000000    
      6 C     c     -0.5196 *   -0.9473 *    0.0507 *   0.00000    1.000000    
      7 H     c     -0.1885      1.1452      1.6494     0.00000    1.000000    
      8 H     c     -1.6963 *    0.9079 *    3.2636 *   0.00000    1.000000    
      9 H     c     -0.2603 *    1.8120 *    3.7923 *   0.00000    1.000000    
     10 H     c     -1.5612 *   -1.5707 *    3.4661 *   0.00000    1.000000    
     11 H     c      0.0162 *   -2.3301 *    3.8783 *   0.00000    1.000000    
     12 H     c     -1.2687 *   -1.5380 *   -0.4620 *   0.00000    1.000000    
     13 H     c     -0.0997 *   -1.4572 *    0.9117 *   0.00000    1.000000    
     14 H     c      1.2456 *    0.2148 *   -0.3160 *   0.00000    1.000000    
     15 H     c     -0.0556 *    0.3895 *   -1.5588 *   0.00000    1.000000    
--------------------------------------------------------------------------------



********************************************************************************
*  Input for Configuration =   6 : test                                        *
********************************************************************************

  Formula = C5H10                                                       

  Number of irreducible atoms/shells =      15


  Total number atoms/shells =      15

  Dimensionality = 0               :  Cluster


  Charge on cluster =   0.000000


  Initial cluster dipoles : x =      0.000000 e.Angs
                            y =      0.000000 e.Angs
                            z =      0.000000 e.Angs

  Temperature of configuration =  0.000     K 

  Symmetry number =      1

  Cartesian coordinates of cluster :

--------------------------------------------------------------------------------
   No.  Atomic       x           y          z         Charge      Occupancy
        Label      (Angs)      (Angs)     (Angs)        (e)         (Frac)  
--------------------------------------------------------------------------------
      1 C     c      0.3273 *   -0.0904 *   -0.6959 *   0.00000    1.000000    
      2 C     c      0.1679 *   -0.3051 *    3.4183 *   0.00000    1.000000    
      3 H     c      1.2525 *   -0.1776 *    3.4492 *   0.00000    1.000000    
      4 C     c     -0.5860 *    0.9126 *    3.0008 *   0.00000    1.000000    
      5 C     c     -0.4046 *   -1.4679 *    3.7254 *   0.00000    1.000000    
      6 C     c     -0.5462 *   -0.9124 *   -0.1277 *   0.00000    1.000000    
      7 H     c     -0.3930 *    1.1467 *    1.9425 *   0.00000    1.000000    
      8 H     c     -1.6726 *    0.8013 *    3.1111 *   0.00000    1.000000    
      9 H     c     -0.2878 *    1.7898 *    3.5904 *   0.00000    1.000000    
     10 H     c     -1.4706 *   -1.6361 *    3.7100 *   0.00000    1.000000    
     11 H     c      0.1540 *   -2.3426 *    4.0218 *   0.00000    1.000000    
     12 H     c     -1.4369 *   -1.2729 *   -0.6236 *   0.00000    1.000000    
     13 H     c     -0.4406     -1.2917      0.8825     0.00000    1.000000    
     14 H     c      1.2195 *    0.2667 *   -0.2000 *   0.00000    1.000000    
     15 H     c      0.2234 *    0.2881 *   -1.7035 *   0.00000    1.000000    
--------------------------------------------------------------------------------



********************************************************************************
*  General input information                                                   *
********************************************************************************

  Species output for all configurations : 

--------------------------------------------------------------------------------
  Species    Type    Atomic    Atomic    Charge       Radii (Angs)     Library
                     Number     Mass       (e)     Cova   Ionic  VDW   Symbol
--------------------------------------------------------------------------------
    C        Core        6      12.01   0.000000   0.770  0.000  1.530          
    H        Core        1       1.01   0.000000   0.370  0.000  1.080          
--------------------------------------------------------------------------------


  Accuracy factor for short range sums = 12.000

  Time limit = Infinity

  Bond-order two-body potentials :

--------------------------------------------------------------------------------
Atom  Types                 A                 B                  Cutoffs(Ang)   
  1     2                 ZetaA             ZetaB                Taper    Max   
--------------------------------------------------------------------------------
H    c H    c            86.7120000000        43.5310000000     0.8000   1.0000
                          3.787900000          1.980000000    
--------------------------------------------------------------------------------
C    c C    c          1393.6000000000       346.7400000000     1.8000   2.1000
                          3.487900000          2.211900000    
--------------------------------------------------------------------------------
H    c C    c           347.6231338677       122.8573926958     1.2000   1.4491
                          3.637900000          2.095950000    
--------------------------------------------------------------------------------

  Bond-order repulsive :

--------------------------------------------------------------------------------
Atom    Type         Alpha            N             Lambda          M           
 1/2     1/2                                                                    
--------------------------------------------------------------------------------
H    c             0.00000000       1.00000000       1.98000000       3
H    c
--------------------------------------------------------------------------------
C    c             0.00000000       0.72751000       2.21190000       3
C    c
--------------------------------------------------------------------------------
H    c             0.00000000       1.00000000       1.98000000       3
C    c
--------------------------------------------------------------------------------
C    c             0.00000000       0.72751000       2.21190000       3
H    c
--------------------------------------------------------------------------------

  Bond-order attractive :

--------------------------------------------------------------------------------
Atom    Type         Alpha            N             Lambda          M           
 1/2     1/2           C              D                H                        
--------------------------------------------------------------------------------
H    c  Theta       4.00000000       1.00000000       1.98000000       3
H    c              0.00000000       1.00000000       1.00000000
--------------------------------------------------------------------------------
C    c  Theta       0.00000016       0.72751000       2.21190000       3
C    c          38049.00000000       4.34840000      -0.57058000
--------------------------------------------------------------------------------
H    c  Theta       4.00000000       1.00000000       1.98000000       3
C    c              0.00000000       1.00000000       1.00000000
--------------------------------------------------------------------------------
C    c  Theta       0.00000016       0.72751000       2.21190000       3
H    c          38049.00000000       4.34840000      -0.57058000
--------------------------------------------------------------------------------

********************************************************************************
*  Output for configuration   1 : test                                         *
********************************************************************************


  Components of energy : 

--------------------------------------------------------------------------------
  Interatomic potentials     =           0.00000000 eV    
  Bond-order potentials      =         -68.64807338 eV    
  Monopole - monopole (real) =           0.00000000 eV    
--------------------------------------------------------------------------------
  Total lattice energy       =         -68.64807338 eV    
--------------------------------------------------------------------------------
  Total lattice energy       =           -6623.4897 kJ/mol
--------------------------------------------------------------------------------


  Number of variables =       42

  Maximum number of calculations  =          1000
  Maximum Hessian update interval =            10
  Maximum step size               =   1.000000000
  Maximum parameter tolerance     =   0.000010000
  Maximum function  tolerance     =   0.000010000
  Maximum gradient  tolerance     =   0.001000000
  Maximum gradient  component     =   0.010000000

  Maximum LM gradient tolerance   =   0.900000000
  Limited Memory BFGS to be used of order   10

  BFGS hessian update to be used

  Lower half triangular hessian to be used

  Start of cluster optimisation :

  Cycle:      0 Energy:       -68.648073  Gnorm:      0.411440  CPU:    0.015
  Cycle:      1 Energy:       -68.906410  Gnorm:      0.336255  CPU:    0.015
  Cycle:      2 Energy:       -69.476984  Gnorm:      0.055757  CPU:    0.015
  Cycle:      3 Energy:       -69.506683  Gnorm:      0.052824  CPU:    0.015
  Cycle:      4 Energy:       -69.653050  Gnorm:      0.056795  CPU:    0.015
  Cycle:      5 Energy:       -69.680898  Gnorm:      0.081223  CPU:    0.015
  Cycle:      6 Energy:       -69.711040  Gnorm:      0.031976  CPU:    0.016
  Cycle:      7 Energy:       -69.719442  Gnorm:      0.022765  CPU:    0.016
  Cycle:      8 Energy:       -69.733919  Gnorm:      0.020911  CPU:    0.016
  Cycle:      9 Energy:       -69.753160  Gnorm:      0.023510  CPU:    0.016
  Cycle:     10 Energy:       -69.769246  Gnorm:      0.036333  CPU:    0.016
  Cycle:     11 Energy:       -69.786625  Gnorm:      0.020017  CPU:    0.016
  Cycle:     12 Energy:       -69.797723  Gnorm:      0.015977  CPU:    0.016
  Cycle:     13 Energy:       -69.809065  Gnorm:      0.019764  CPU:    0.016
  Cycle:     14 Energy:       -69.818177  Gnorm:      0.026818  CPU:    0.016
  Cycle:     15 Energy:       -69.825617  Gnorm:      0.012330  CPU:    0.016
  Cycle:     16 Energy:       -69.829034  Gnorm:      0.008367  CPU:    0.017
  Cycle:     17 Energy:       -69.831117  Gnorm:      0.010751  CPU:    0.017
  Cycle:     18 Energy:       -69.832553  Gnorm:      0.013294  CPU:    0.017
  Cycle:     19 Energy:       -69.833698  Gnorm:      0.005816  CPU:    0.017
  Cycle:     20 Energy:       -69.834165  Gnorm:      0.004920  CPU:    0.017
  Cycle:     21 Energy:       -69.835073  Gnorm:      0.005759  CPU:    0.017
  Cycle:     22 Energy:       -69.835884  Gnorm:      0.010165  CPU:    0.017
  Cycle:     23 Energy:       -69.836542  Gnorm:      0.003503  CPU:    0.017
  Cycle:     24 Energy:       -69.836756  Gnorm:      0.002950  CPU:    0.017
  Cycle:     25 Energy:       -69.837162  Gnorm:      0.003492  CPU:    0.017
  Cycle:     26 Energy:       -69.838039  Gnorm:      0.005064  CPU:    0.018
  Cycle:     27 Energy:       -69.838610  Gnorm:      0.008377  CPU:    0.018
  Cycle:     28 Energy:       -69.839559  Gnorm:      0.004718  CPU:    0.018
  Cycle:     29 Energy:       -69.840198  Gnorm:      0.002855  CPU:    0.018
  Cycle:     30 Energy:       -69.840401  Gnorm:      0.006891  CPU:    0.018
  Cycle:     31 Energy:       -69.840641  Gnorm:      0.002795  CPU:    0.018
  Cycle:     32 Energy:       -69.840718  Gnorm:      0.001912  CPU:    0.018
  Cycle:     33 Energy:       -69.840825  Gnorm:      0.001321  CPU:    0.018
  Cycle:     34 Energy:       -69.840860  Gnorm:      0.002168  CPU:    0.018
  Cycle:     35 Energy:       -69.840896  Gnorm:      0.001069  CPU:    0.019
  Cycle:     36 Energy:       -69.840918  Gnorm:      0.000495  CPU:    0.019


  **** Optimisation achieved ****


  Final energy =     -69.84092403 eV
  Final Gnorm  =       0.00039786

  Components of energy : 

--------------------------------------------------------------------------------
  Interatomic potentials     =           0.00000000 eV    
  Bond-order potentials      =         -69.84092403 eV    
  Monopole - monopole (real) =           0.00000000 eV    
--------------------------------------------------------------------------------
  Total lattice energy       =         -69.84092403 eV    
--------------------------------------------------------------------------------
  Total lattice energy       =           -6738.5816 kJ/mol
--------------------------------------------------------------------------------

  Final cartesian coordinates of atoms :

--------------------------------------------------------------------------------
   No.  Atomic        x           y          z          Radius
        Label       (Angs)      (Angs)     (Angs)       (Angs) 
--------------------------------------------------------------------------------
     1  C     c    -0.032974   -0.007766    0.174240    0.000000
     2  C     c     0.091865   -0.004549    3.012901    0.000000
     3  H     c     1.128930    0.063389    2.902369    0.000000
     4  C     c    -0.610775    0.871128    3.929643    0.000000
     5  C     c    -0.687545   -0.998499    2.237210    0.000000
     6  C     c     0.112325   -1.250068    0.990431    0.000000
     7  H     c     0.386624    0.819890    0.734410    0.000000
     8  H     c    -1.651761    0.847907    3.978595    0.000000
     9  H     c    -0.075221    1.524303    4.540551    0.000000
    10  H     c    -1.665306   -0.587532    1.974126    0.000000
    11  H     c    -0.786124   -1.925842    2.807319    0.000000
    12  H     c    -0.301038   -2.105396    0.448881    0.000000
    13  H     c     1.163238   -1.408823    1.247710    0.000000
    14  H     c     0.502711   -0.146480   -0.757729    0.000000
    15  H     c    -1.087734    0.156043   -0.014047    0.000000
--------------------------------------------------------------------------------


  Final Cartesian derivatives :

--------------------------------------------------------------------------------
   No.  Atomic          x             y             z           Radius
        Label       (eV/Angs)     (eV/Angs)    (eV/Angs)      (eV/Angs)
--------------------------------------------------------------------------------
      1 C     c       0.000272      0.000953     -0.003050      0.000000
      2 C     c       0.004596      0.004329      0.002279      0.000000
      3 H     c      -0.003862     -0.003268      0.001706      0.000000
      4 C     c      -0.006011     -0.001707     -0.000802      0.000000
      5 C     c       0.000000      0.000000      0.000000      0.000000
      6 C     c       0.000237     -0.004660      0.002357      0.000000
      7 H     c       0.001822     -0.001691     -0.002397      0.000000
      8 H     c       0.001465      0.000383      0.001155      0.000000
      9 H     c       0.003281     -0.002848     -0.002173      0.000000
     10 H     c      -0.000968     -0.001932      0.001117      0.000000
     11 H     c       0.005769      0.000157      0.001694      0.000000
     12 H     c      -0.001318     -0.001211      0.003113      0.000000
     13 H     c      -0.001081      0.002201      0.001115      0.000000
     14 H     c      -0.000862      0.004219      0.001489      0.000000
     15 H     c       0.001151      0.000729     -0.002090      0.000000
--------------------------------------------------------------------------------
  Maximum abs         0.006011      0.004660      0.003113      0.000000
--------------------------------------------------------------------------------


  Time to end of optimisation =       0.0190 seconds


********************************************************************************
*  Output for configuration   2 : test                                         *
********************************************************************************


  Components of energy : 

--------------------------------------------------------------------------------
  Interatomic potentials     =           0.00000000 eV    
  Bond-order potentials      =         -62.55638805 eV    
  Monopole - monopole (real) =           0.00000000 eV    
--------------------------------------------------------------------------------
  Total lattice energy       =         -62.55638805 eV    
--------------------------------------------------------------------------------
  Total lattice energy       =           -6035.7352 kJ/mol
--------------------------------------------------------------------------------


  Number of variables =       42

  Maximum number of calculations  =          1000
  Maximum Hessian update interval =            10
  Maximum step size               =   1.000000000
  Maximum parameter tolerance     =   0.000010000
  Maximum function  tolerance     =   0.000010000
  Maximum gradient  tolerance     =   0.001000000
  Maximum gradient  component     =   0.010000000

  Maximum LM gradient tolerance   =   0.900000000
  Limited Memory BFGS to be used of order   10

  BFGS hessian update to be used

  Lower half triangular hessian to be used

  Start of cluster optimisation :

  Cycle:      0 Energy:       -62.556388  Gnorm:      0.481035  CPU:    0.019
  Cycle:      1 Energy:       -63.312103  Gnorm:      0.391791  CPU:    0.019
  Cycle:      2 Energy:       -65.308281  Gnorm:      0.275193  CPU:    0.020
  Cycle:      3 Energy:       -65.961528  Gnorm:      0.151818  CPU:    0.020
  Cycle:      4 Energy:       -66.543035  Gnorm:      0.141731  CPU:    0.020
  Cycle:      5 Energy:       -66.773852  Gnorm:      0.239978  CPU:    0.020
  Cycle:      6 Energy:       -67.037021  Gnorm:      0.086897  CPU:    0.020
  Cycle:      7 Energy:       -67.105091  Gnorm:      0.065865  CPU:    0.020
  Cycle:      8 Energy:       -67.169712  Gnorm:      0.101195  CPU:    0.020
  Cycle:      9 Energy:       -67.233495  Gnorm:      0.059441  CPU:    0.020
  Cycle:     10 Energy:       -67.293733  Gnorm:      0.045154  CPU:    0.020
  Cycle:     11 Energy:       -67.339436  Gnorm:      0.044741  CPU:    0.020
  Cycle:     12 Energy:       -67.383470  Gnorm:      0.056505  CPU:    0.020
  Cycle:     13 Energy:       -67.401280  Gnorm:      0.023113  CPU:    0.021
  Cycle:     14 Energy:       -67.404902  Gnorm:      0.008895  CPU:    0.021
  Cycle:     15 Energy:       -67.406058  Gnorm:      0.007195  CPU:    0.021
  Cycle:     16 Energy:       -67.406921  Gnorm:      0.005756  CPU:    0.021
  Cycle:     17 Energy:       -67.407136  Gnorm:      0.008447  CPU:    0.021
  Cycle:     18 Energy:       -67.407473  Gnorm:      0.002229  CPU:    0.021
  Cycle:     19 Energy:       -67.407531  Gnorm:      0.001899  CPU:    0.021
  Cycle:     20 Energy:       -67.407667  Gnorm:      0.002100  CPU:    0.021
  Cycle:     21 Energy:       -67.407709  Gnorm:      0.002627  CPU:    0.021
  Cycle:     22 Energy:       -67.407761  Gnorm:      0.001482  CPU:    0.021
  Cycle:     23 Energy:       -67.407798  Gnorm:      0.000814  CPU:    0.021
  Cycle:     24 Energy:       -67.407816  Gnorm:      0.000713  CPU:    0.021
  Cycle:     25 Energy:       -67.407823  Gnorm:      0.001108  CPU:    0.022


  **** Optimisation achieved ****


  Final energy =     -67.40783032 eV
  Final Gnorm  =       0.00035205

  Components of energy : 

--------------------------------------------------------------------------------
  Interatomic potentials     =           0.00000000 eV    
  Bond-order potentials      =         -67.40783032 eV    
  Monopole - monopole (real) =           0.00000000 eV    
--------------------------------------------------------------------------------
  Total lattice energy       =         -67.40783032 eV    
--------------------------------------------------------------------------------
  Total lattice energy       =           -6503.8252 kJ/mol
--------------------------------------------------------------------------------

  Final cartesian coordinates of atoms :

--------------------------------------------------------------------------------
   No.  Atomic        x           y          z          Radius
        Label       (Angs)      (Angs)     (Angs)       (Angs) 
--------------------------------------------------------------------------------
     1  C     c    -0.043382   -0.145533   -0.367023    0.000000
     2  C     c     0.059776   -0.115297    3.138108    0.000000
     3  H     c     1.102528   -0.147761    3.089042    0.000000
     4  C     c    -0.610713    0.964857    3.833479    0.000000
     5  C     c    -0.738801   -1.149020    2.510710    0.000000
     6  C     c     0.150182   -1.364337    0.383532    0.000000
     7  H     c     0.361600    1.020410    0.862528    0.000000
     8  H     c    -1.649505    1.043621    3.796187    0.000000
     9  H     c    -0.054520    1.663960    4.370573    0.000000
    10  H     c    -1.571789   -0.890103    1.939923    0.000000
    11  H     c    -0.480718   -2.151861    2.629817    0.000000
    12  H     c    -0.476905   -2.181064    0.222712    0.000000
    13  H     c     0.917147   -1.427683    1.086375    0.000000
    14  H     c     0.768874    0.318735   -0.826169    0.000000
    15  H     c    -0.995438    0.270357   -0.449710    0.000000
--------------------------------------------------------------------------------


  Final Cartesian derivatives :

--------------------------------------------------------------------------------
   No.  Atomic          x             y             z           Radius
        Label       (eV/Angs)     (eV/Angs)    (eV/Angs)      (eV/Angs)
--------------------------------------------------------------------------------
      1 C     c       0.003094      0.006659     -0.003751      0.000000
      2 C     c       0.000095      0.000568      0.002662      0.000000
      3 H     c       0.002729      0.001364     -0.001942      0.000000
      4 C     c      -0.000724     -0.000609      0.004329      0.000000
      5 C     c       0.000000      0.000000      0.000000      0.000000
      6 C     c      -0.003749     -0.006352      0.000598      0.000000
      7 H     c       0.000000      0.000000      0.000000      0.000000
      8 H     c      -0.000342     -0.000510     -0.002750      0.000000
      9 H     c      -0.000308     -0.000258     -0.002570      0.000000
     10 H     c      -0.000192      0.000264     -0.000180      0.000000
     11 H     c      -0.003839      0.002048     -0.002638      0.000000
     12 H     c       0.002151     -0.000570      0.002079      0.000000
     13 H     c       0.000067      0.000727     -0.000367      0.000000
     14 H     c      -0.001866     -0.000451      0.001074      0.000000
     15 H     c       0.000302     -0.000014      0.000367      0.000000
--------------------------------------------------------------------------------
  Maximum abs         0.003839      0.006659      0.004329      0.000000
--------------------------------------------------------------------------------


  Time to end of optimisation =       0.0219 seconds


********************************************************************************
*  Output for configuration   3 : test                                         *
********************************************************************************


  Components of energy : 

--------------------------------------------------------------------------------
  Interatomic potentials     =           0.00000000 eV    
  Bond-order potentials      =         -63.79383704 eV    
  Monopole - monopole (real) =           0.00000000 eV    
--------------------------------------------------------------------------------
  Total lattice energy       =         -63.79383704 eV    
--------------------------------------------------------------------------------
  Total lattice energy       =           -6155.1301 kJ/mol
--------------------------------------------------------------------------------


  Number of variables =       42

  Maximum number of calculations  =          1000
  Maximum Hessian update interval =            10
  Maximum step size               =   1.000000000
  Maximum parameter tolerance     =   0.000010000
  Maximum function  tolerance     =   0.000010000
  Maximum gradient  tolerance     =   0.001000000
  Maximum gradient  component     =   0.010000000

  Maximum LM gradient tolerance   =   0.900000000
  Limited Memory BFGS to be used of order   10

  BFGS hessian update to be used

  Lower half triangular hessian to be used

  Start of cluster optimisation :

  Cycle:      0 Energy:       -63.793837  Gnorm:      0.344459  CPU:    0.022
  Cycle:      1 Energy:       -64.171569  Gnorm:      0.299206  CPU:    0.022
  Cycle:      2 Energy:       -65.773469  Gnorm:      0.364640  CPU:    0.022
  Cycle:      3 Energy:       -66.437398  Gnorm:      0.144784  CPU:    0.022
  Cycle:      4 Energy:       -66.758571  Gnorm:      0.110791  CPU:    0.023
  Cycle:      5 Energy:       -66.961637  Gnorm:      0.123908  CPU:    0.023
  Cycle:      6 Energy:       -67.123542  Gnorm:      0.099037  CPU:    0.023
  Cycle:      7 Energy:       -67.229792  Gnorm:      0.053630  CPU:    0.023
  Cycle:      8 Energy:       -67.275580  Gnorm:      0.051547  CPU:    0.023
  Cycle:      9 Energy:       -67.310109  Gnorm:      0.044327  CPU:    0.023
  Cycle:     10 Energy:       -67.345099  Gnorm:      0.037958  CPU:    0.023
  Cycle:     11 Energy:       -67.373154  Gnorm:      0.058361  CPU:    0.023
  Cycle:     12 Energy:       -67.398415  Gnorm:      0.024914  CPU:    0.023
  Cycle:     13 Energy:       -67.405171  Gnorm:      0.013015  CPU:    0.023
  Cycle:     14 Energy:       -67.407201  Gnorm:      0.004463  CPU:    0.023
  Cycle:     15 Energy:       -67.407431  Gnorm:      0.002616  CPU:    0.024
  Cycle:     16 Energy:       -67.407574  Gnorm:      0.001934  CPU:    0.024
  Cycle:     17 Energy:       -67.407663  Gnorm:      0.002943  CPU:    0.024
  Cycle:     18 Energy:       -67.407731  Gnorm:      0.001486  CPU:    0.024
  Cycle:     19 Energy:       -67.407758  Gnorm:      0.001046  CPU:    0.024
  Cycle:     20 Energy:       -67.407793  Gnorm:      0.000903  CPU:    0.024
  Cycle:     21 Energy:       -67.407809  Gnorm:      0.001737  CPU:    0.024
  Cycle:     22 Energy:       -67.407824  Gnorm:      0.000655  CPU:    0.024


  **** Optimisation achieved ****


  Final energy =     -67.40782880 eV
  Final Gnorm  =       0.00039443

  Components of energy : 

--------------------------------------------------------------------------------
  Interatomic potentials     =           0.00000000 eV    
  Bond-order potentials      =         -67.40782880 eV    
  Monopole - monopole (real) =           0.00000000 eV    
--------------------------------------------------------------------------------
  Total lattice energy       =         -67.40782880 eV    
--------------------------------------------------------------------------------
  Total lattice energy       =           -6503.8251 kJ/mol
--------------------------------------------------------------------------------

  Final cartesian coordinates of atoms :

--------------------------------------------------------------------------------
   No.  Atomic        x           y          z          Radius
        Label       (Angs)      (Angs)     (Angs)       (Angs) 
--------------------------------------------------------------------------------
     1  C     c    -0.022192   -0.077964   -0.463735    0.000000
     2  C     c     0.077733   -0.162611    3.241756    0.000000
     3  H     c     1.120420   -0.219156    3.220297    0.000000
     4  C     c    -0.584403    1.038642    3.708803    0.000000
     5  C     c    -0.729132   -1.284320    2.805050    0.000000
     6  C     c     0.037038   -1.315894    0.278024    0.000000
     7  H     c     0.279566    1.090600    1.177830    0.000000
     8  H     c    -1.609077    1.160393    3.560936    0.000000
     9  H     c    -0.036510    1.781160    4.193560    0.000000
    10  H     c    -1.632469   -1.116396    2.312522    0.000000
    11  H     c    -0.406602   -2.259342    2.982776    0.000000
    12  H     c    -0.591214   -2.107269    0.022792    0.000000
    13  H     c     0.707831   -1.418340    1.069109    0.000000
    14  H     c     0.855211    0.436995   -0.689904    0.000000
    15  H     c    -0.942399    0.300801   -0.773664    0.000000
--------------------------------------------------------------------------------


  Final Cartesian derivatives :

--------------------------------------------------------------------------------
   No.  Atomic          x             y             z           Radius
        Label       (eV/Angs)     (eV/Angs)    (eV/Angs)      (eV/Angs)
--------------------------------------------------------------------------------
      1 C     c       0.000141      0.002211      0.000989      0.000000
      2 C     c       0.001167      0.006200     -0.000087      0.000000
      3 H     c       0.005288      0.001004      0.000656      0.000000
      4 C     c      -0.001879     -0.001846     -0.005957      0.000000
      5 C     c       0.000000      0.000000      0.000000      0.000000
      6 C     c       0.002011     -0.004414      0.000438      0.000000
      7 H     c       0.000000      0.000000      0.000000      0.000000
      8 H     c      -0.000455     -0.000902      0.001711      0.000000
      9 H     c      -0.000832     -0.003877      0.000141      0.000000
     10 H     c      -0.000899      0.002582     -0.001566      0.000000
     11 H     c      -0.005416      0.005200     -0.004030      0.000000
     12 H     c       0.000539      0.003058      0.000179      0.000000
     13 H     c      -0.000247     -0.002148      0.002165      0.000000
     14 H     c      -0.001716      0.000193     -0.001661      0.000000
     15 H     c      -0.000728      0.001100     -0.002111      0.000000
--------------------------------------------------------------------------------
  Maximum abs         0.005416      0.006200      0.005957      0.000000
--------------------------------------------------------------------------------


  Time to end of optimisation =       0.0244 seconds


********************************************************************************
*  Output for configuration   4 : test                                         *
********************************************************************************


  Components of energy : 

--------------------------------------------------------------------------------
  Interatomic potentials     =           0.00000000 eV    
  Bond-order potentials      =         -64.43574388 eV    
  Monopole - monopole (real) =           0.00000000 eV    
--------------------------------------------------------------------------------
  Total lattice energy       =         -64.43574388 eV    
--------------------------------------------------------------------------------
  Total lattice energy       =           -6217.0643 kJ/mol
--------------------------------------------------------------------------------


  Number of variables =       42

  Maximum number of calculations  =          1000
  Maximum Hessian update interval =            10
  Maximum step size               =   1.000000000
  Maximum parameter tolerance     =   0.000010000
  Maximum function  tolerance     =   0.000010000
  Maximum gradient  tolerance     =   0.001000000
  Maximum gradient  component     =   0.010000000

  Maximum LM gradient tolerance   =   0.900000000
  Limited Memory BFGS to be used of order   10

  BFGS hessian update to be used

  Lower half triangular hessian to be used

  Start of cluster optimisation :

  Cycle:      0 Energy:       -64.435744  Gnorm:      0.402932  CPU:    0.025
  Cycle:      1 Energy:       -65.390340  Gnorm:      0.264340  CPU:    0.025
  Cycle:      2 Energy:       -66.434524  Gnorm:      0.248053  CPU:    0.025
  Cycle:      3 Energy:       -66.886459  Gnorm:      0.129370  CPU:    0.025
  Cycle:      4 Energy:       -67.118960  Gnorm:      0.098481  CPU:    0.025
  Cycle:      5 Energy:       -67.207458  Gnorm:      0.078094  CPU:    0.025
  Cycle:      6 Energy:       -67.319923  Gnorm:      0.064785  CPU:    0.025
  Cycle:      7 Energy:       -67.360849  Gnorm:      0.071721  CPU:    0.025
  Cycle:      8 Energy:       -67.383300  Gnorm:      0.034235  CPU:    0.025
  Cycle:      9 Energy:       -67.388880  Gnorm:      0.016659  CPU:    0.026
  Cycle:     10 Energy:       -67.393323  Gnorm:      0.012720  CPU:    0.026
  Cycle:     11 Energy:       -67.400676  Gnorm:      0.015763  CPU:    0.026
  Cycle:     12 Energy:       -67.405842  Gnorm:      0.013723  CPU:    0.026
  Cycle:     13 Energy:       -67.406696  Gnorm:      0.011217  CPU:    0.026
  Cycle:     14 Energy:       -67.407518  Gnorm:      0.003131  CPU:    0.026
  Cycle:     15 Energy:       -67.407638  Gnorm:      0.002099  CPU:    0.026
  Cycle:     16 Energy:       -67.407737  Gnorm:      0.002158  CPU:    0.026
  Cycle:     17 Energy:       -67.407790  Gnorm:      0.002334  CPU:    0.026
  Cycle:     18 Energy:       -67.407813  Gnorm:      0.001145  CPU:    0.026


  **** Optimisation achieved ****


  Final energy =     -67.40782021 eV
  Final Gnorm  =       0.00044665

  Components of energy : 

--------------------------------------------------------------------------------
  Interatomic potentials     =           0.00000000 eV    
  Bond-order potentials      =         -67.40782021 eV    
  Monopole - monopole (real) =           0.00000000 eV    
--------------------------------------------------------------------------------
  Total lattice energy       =         -67.40782021 eV    
--------------------------------------------------------------------------------
  Total lattice energy       =           -6503.8242 kJ/mol
--------------------------------------------------------------------------------

  Final cartesian coordinates of atoms :

--------------------------------------------------------------------------------
   No.  Atomic        x           y          z          Radius
        Label       (Angs)      (Angs)     (Angs)       (Angs) 
--------------------------------------------------------------------------------
     1  C     c     0.102219   -0.019834   -0.590318    0.000000
     2  C     c     0.077392   -0.222378    3.389057    0.000000
     3  H     c     1.118698   -0.250597    3.314986    0.000000
     4  C     c    -0.613136    1.037670    3.577027    0.000000
     5  C     c    -0.699657   -1.442280    3.302377    0.000000
     6  C     c    -0.168568   -1.234607    0.142424    0.000000
     7  H     c     0.104713    1.129540    1.430470    0.000000
     8  H     c    -1.622745    1.120609    3.331081    0.000000
     9  H     c    -0.100670    1.861690    3.957704    0.000000
    10  H     c    -1.685752   -1.409454    2.966050    0.000000
    11  H     c    -0.273245   -2.352976    3.576676    0.000000
    12  H     c    -0.903058   -1.893308   -0.193362    0.000000
    13  H     c     0.370143   -1.453028    1.007462    0.000000
    14  H     c     1.040576    0.429201   -0.527127    0.000000
    15  H     c    -0.640485    0.407989   -1.183232    0.000000
--------------------------------------------------------------------------------


  Final Cartesian derivatives :

--------------------------------------------------------------------------------
   No.  Atomic          x             y             z           Radius
        Label       (eV/Angs)     (eV/Angs)    (eV/Angs)      (eV/Angs)
--------------------------------------------------------------------------------
      1 C     c       0.000951      0.003434      0.002113      0.000000
      2 C     c      -0.000809     -0.002384      0.006394      0.000000
      3 H     c       0.000317     -0.002168     -0.005648      0.000000
      4 C     c       0.001671     -0.000303      0.003975      0.000000
      5 C     c       0.005735      0.000943     -0.001227      0.000000
      6 C     c       0.000748     -0.001935      0.000080      0.000000
      7 H     c       0.000000      0.000000      0.000000      0.000000
      8 H     c       0.001485     -0.004944     -0.002349      0.000000
      9 H     c      -0.005248      0.003177     -0.001748      0.000000
     10 H     c       0.002879      0.005293      0.001450      0.000000
     11 H     c      -0.006031      0.000386     -0.000846      0.000000
     12 H     c       0.000961      0.003955     -0.001090      0.000000
     13 H     c      -0.001347     -0.001935      0.001221      0.000000
     14 H     c      -0.000802     -0.000001     -0.002437      0.000000
     15 H     c      -0.000512     -0.003519      0.000113      0.000000
--------------------------------------------------------------------------------
  Maximum abs         0.006031      0.005293      0.006394      0.000000
--------------------------------------------------------------------------------


  Time to end of optimisation =       0.0266 seconds


********************************************************************************
*  Output for configuration   5 : test                                         *
********************************************************************************


  Components of energy : 

--------------------------------------------------------------------------------
  Interatomic potentials     =           0.00000000 eV    
  Bond-order potentials      =         -64.82872064 eV    
  Monopole - monopole (real) =           0.00000000 eV    
--------------------------------------------------------------------------------
  Total lattice energy       =         -64.82872064 eV    
--------------------------------------------------------------------------------
  Total lattice energy       =           -6254.9805 kJ/mol
--------------------------------------------------------------------------------


  Number of variables =       42

  Maximum number of calculations  =          1000
  Maximum Hessian update interval =            10
  Maximum step size               =   1.000000000
  Maximum parameter tolerance     =   0.000010000
  Maximum function  tolerance     =   0.000010000
  Maximum gradient  tolerance     =   0.001000000
  Maximum gradient  component     =   0.010000000

  Maximum LM gradient tolerance   =   0.900000000
  Limited Memory BFGS to be used of order   10

  BFGS hessian update to be used

  Lower half triangular hessian to be used

  Start of cluster optimisation :

  Cycle:      0 Energy:       -64.828721  Gnorm:      0.503140  CPU:    0.027
  Cycle:      1 Energy:       -65.494479  Gnorm:      0.378726  CPU:    0.027
  Cycle:      2 Energy:       -66.646643  Gnorm:      0.189763  CPU:    0.027
  Cycle:      3 Energy:       -66.903537  Gnorm:      0.140778  CPU:    0.027
  Cycle:      4 Energy:       -67.200248  Gnorm:      0.134924  CPU:    0.027
  Cycle:      5 Energy:       -67.279063  Gnorm:      0.094065  CPU:    0.027
  Cycle:      6 Energy:       -67.313850  Gnorm:      0.042673  CPU:    0.027
  Cycle:      7 Energy:       -67.341198  Gnorm:      0.030843  CPU:    0.028
  Cycle:      8 Energy:       -67.379136  Gnorm:      0.034607  CPU:    0.028
  Cycle:      9 Energy:       -67.392436  Gnorm:      0.043335  CPU:    0.028
  Cycle:     10 Energy:       -67.400879  Gnorm:      0.016612  CPU:    0.028
  Cycle:     11 Energy:       -67.403413  Gnorm:      0.009621  CPU:    0.028
  Cycle:     12 Energy:       -67.405373  Gnorm:      0.007908  CPU:    0.028
  Cycle:     13 Energy:       -67.407098  Gnorm:      0.005693  CPU:    0.028
  Cycle:     14 Energy:       -67.407371  Gnorm:      0.005714  CPU:    0.028
  Cycle:     15 Energy:       -67.407654  Gnorm:      0.002360  CPU:    0.028
  Cycle:     16 Energy:       -67.407739  Gnorm:      0.001770  CPU:    0.028
  Cycle:     17 Energy:       -67.407789  Gnorm:      0.001885  CPU:    0.028
  Cycle:     18 Energy:       -67.407812  Gnorm:      0.000652  CPU:    0.029
  Cycle:     19 Energy:       -67.407818  Gnorm:      0.000536  CPU:    0.029


  **** Optimisation achieved ****


  Final energy =     -67.40782451 eV
  Final Gnorm  =       0.00048919

  Components of energy : 

--------------------------------------------------------------------------------
  Interatomic potentials     =           0.00000000 eV    
  Bond-order potentials      =         -67.40782451 eV    
  Monopole - monopole (real) =           0.00000000 eV    
--------------------------------------------------------------------------------
  Total lattice energy       =         -67.40782451 eV    
--------------------------------------------------------------------------------
  Total lattice energy       =           -6503.8246 kJ/mol
--------------------------------------------------------------------------------

  Final cartesian coordinates of atoms :

--------------------------------------------------------------------------------
   No.  Atomic        x           y          z          Radius
        Label       (Angs)      (Angs)     (Angs)       (Angs) 
--------------------------------------------------------------------------------
     1  C     c     0.295903   -0.041289   -0.665421    0.000000
     2  C     c     0.146411   -0.231896    3.425963    0.000000
     3  H     c     1.184561   -0.177797    3.326835    0.000000
     4  C     c    -0.657110    0.973906    3.421454    0.000000
     5  C     c    -0.513179   -1.514189    3.568574    0.000000
     6  C     c    -0.453352   -1.075600    0.008882    0.000000
     7  H     c    -0.188535    1.145160    1.649400    0.000000
     8  H     c    -1.662896    0.929110    3.151303    0.000000
     9  H     c    -0.229749    1.886622    3.688085    0.000000
    10  H     c    -1.540914   -1.591912    3.412575    0.000000
    11  H     c     0.039522   -2.359180    3.827440    0.000000
    12  H     c    -1.302057   -1.481342   -0.439687    0.000000
    13  H     c    -0.145467   -1.417145    0.944176    0.000000
    14  H     c     1.223805    0.255917   -0.295477    0.000000
    15  H     c    -0.090527    0.407874   -1.522827    0.000000
--------------------------------------------------------------------------------


  Final Cartesian derivatives :

--------------------------------------------------------------------------------
   No.  Atomic          x             y             z           Radius
        Label       (eV/Angs)     (eV/Angs)    (eV/Angs)      (eV/Angs)
--------------------------------------------------------------------------------
      1 C     c      -0.003777      0.002114      0.002129      0.000000
      2 C     c      -0.001529      0.007620      0.000679      0.000000
      3 H     c      -0.001312     -0.004631     -0.002350      0.000000
      4 C     c      -0.001158     -0.005952      0.003020      0.000000
      5 C     c       0.004781     -0.004934     -0.000013      0.000000
      6 C     c      -0.000081      0.001470      0.001540      0.000000
      7 H     c       0.000000      0.000000      0.000000      0.000000
      8 H     c       0.003326     -0.006261     -0.000818      0.000000
      9 H     c      -0.002114      0.006204     -0.000117      0.000000
     10 H     c       0.001991      0.008744     -0.000641      0.000000
     11 H     c      -0.003985     -0.000790      0.000240      0.000000
     12 H     c       0.002415      0.000792     -0.000826      0.000000
     13 H     c      -0.000338     -0.002051      0.000136      0.000000
     14 H     c       0.000610     -0.001263     -0.001588      0.000000
     15 H     c       0.001170     -0.001062     -0.001391      0.000000
--------------------------------------------------------------------------------
  Maximum abs         0.004781      0.008744      0.003020      0.000000
--------------------------------------------------------------------------------


  Time to end of optimisation =       0.0289 seconds


********************************************************************************
*  Output for configuration   6 : test                                         *
********************************************************************************


  Components of energy : 

--------------------------------------------------------------------------------
  Interatomic potentials     =           0.00000000 eV    
  Bond-order potentials      =         -68.80011013 eV    
  Monopole - monopole (real) =           0.00000000 eV    
--------------------------------------------------------------------------------
  Total lattice energy       =         -68.80011013 eV    
--------------------------------------------------------------------------------
  Total lattice energy       =           -6638.1589 kJ/mol
--------------------------------------------------------------------------------


  Number of variables =       42

  Maximum number of calculations  =          1000
  Maximum Hessian update interval =            10
  Maximum step size               =   1.000000000
  Maximum parameter tolerance     =   0.000010000
  Maximum function  tolerance     =   0.000010000
  Maximum gradient  tolerance     =   0.001000000
  Maximum gradient  component     =   0.010000000

  Maximum LM gradient tolerance   =   0.900000000
  Limited Memory BFGS to be used of order   10

  BFGS hessian update to be used

  Lower half triangular hessian to be used

  Start of cluster optimisation :

  Cycle:      0 Energy:       -68.800110  Gnorm:      0.586597  CPU:    0.029
  Cycle:      1 Energy:       -69.309711  Gnorm:      0.478652  CPU:    0.029
  Cycle:      2 Energy:       -70.383332  Gnorm:      0.042477  CPU:    0.029
  Cycle:      3 Energy:       -70.398072  Gnorm:      0.033319  CPU:    0.030
  Cycle:      4 Energy:       -70.430794  Gnorm:      0.033384  CPU:    0.030
  Cycle:      5 Energy:       -70.448808  Gnorm:      0.052490  CPU:    0.030
  Cycle:      6 Energy:       -70.467285  Gnorm:      0.028165  CPU:    0.030
  Cycle:      7 Energy:       -70.479816  Gnorm:      0.016497  CPU:    0.030
  Cycle:      8 Energy:       -70.485028  Gnorm:      0.016771  CPU:    0.030
  Cycle:      9 Energy:       -70.489533  Gnorm:      0.020848  CPU:    0.030
  Cycle:     10 Energy:       -70.492055  Gnorm:      0.008785  CPU:    0.030
  Cycle:     11 Energy:       -70.492511  Gnorm:      0.003829  CPU:    0.030
  Cycle:     12 Energy:       -70.492690  Gnorm:      0.002622  CPU:    0.030
  Cycle:     13 Energy:       -70.492842  Gnorm:      0.001646  CPU:    0.030
  Cycle:     14 Energy:       -70.492865  Gnorm:      0.001653  CPU:    0.031
  Cycle:     15 Energy:       -70.492879  Gnorm:      0.000355  CPU:    0.031


  **** Optimisation achieved ****


  Final energy =     -70.49288022 eV
  Final Gnorm  =       0.00028447

  Components of energy : 

--------------------------------------------------------------------------------
  Interatomic potentials     =           0.00000000 eV    
  Bond-order potentials      =         -70.49288022 eV    
  Monopole - monopole (real) =           0.00000000 eV    
--------------------------------------------------------------------------------
  Total lattice energy       =         -70.49288022 eV    
--------------------------------------------------------------------------------
  Total lattice energy       =           -6801.4854 kJ/mol
--------------------------------------------------------------------------------

  Final cartesian coordinates of atoms :

--------------------------------------------------------------------------------
   No.  Atomic        x           y          z          Radius
        Label       (Angs)      (Angs)     (Angs)       (Angs) 
--------------------------------------------------------------------------------
     1  C     c     0.361688   -0.064299   -0.707969    0.000000
     2  C     c     0.225778   -0.241073    3.400636    0.000000
     3  H     c     1.266709   -0.166954    3.451855    0.000000
     4  C     c    -0.587870    0.914563    2.994979    0.000000
     5  C     c    -0.441204   -1.484930    3.729320    0.000000
     6  C     c    -0.592167   -0.957868   -0.093269    0.000000
     7  H     c    -0.405203    1.118518    1.947977    0.000000
     8  H     c    -1.632034    0.677700    3.152431    0.000000
     9  H     c    -0.303875    1.768056    3.596754    0.000000
    10  H     c    -1.480719   -1.547259    3.683179    0.000000
    11  H     c     0.118285   -2.317617    4.012289    0.000000
    12  H     c    -1.432698   -1.269324   -0.625049    0.000000
    13  H     c    -0.440556   -1.291690    0.882475    0.000000
    14  H     c     1.202897    0.246202   -0.176763    0.000000
    15  H     c     0.209237    0.270572   -1.683111    0.000000
--------------------------------------------------------------------------------


  Final Cartesian derivatives :

--------------------------------------------------------------------------------
   No.  Atomic          x             y             z           Radius
        Label       (eV/Angs)     (eV/Angs)    (eV/Angs)      (eV/Angs)
--------------------------------------------------------------------------------
      1 C     c       0.000114      0.000118     -0.001339      0.000000
      2 C     c      -0.002208     -0.000283     -0.001522      0.000000
      3 H     c      -0.003362     -0.000082      0.001594      0.000000
      4 C     c       0.000931     -0.002324     -0.000179      0.000000
      5 C     c       0.001429     -0.000079     -0.000745      0.000000
      6 C     c       0.001419      0.000858     -0.000878      0.000000
      7 H     c       0.000542     -0.001742     -0.002616      0.000000
      8 H     c      -0.002482     -0.000641      0.000247      0.000000
      9 H     c       0.003360     -0.003137      0.004003      0.000000
     10 H     c       0.000828      0.002337      0.000143      0.000000
     11 H     c       0.000960      0.005950     -0.000925      0.000000
     12 H     c      -0.000239      0.000831     -0.001689      0.000000
     13 H     c       0.000000      0.000000      0.000000      0.000000
     14 H     c       0.000857      0.001474     -0.001468      0.000000
     15 H     c       0.000068      0.000727     -0.000942      0.000000
--------------------------------------------------------------------------------
  Maximum abs         0.003362      0.005950      0.004003      0.000000
--------------------------------------------------------------------------------


  Time to end of optimisation =       0.0310 seconds


  Peak dynamic memory used =       0.63 MB 


  Timing analysis for GULP :

--------------------------------------------------------------------------------
  Task / Subroutine                                          Time (Seconds)
--------------------------------------------------------------------------------
  Calculation of Bond Order energy and derivatives                0.0100
--------------------------------------------------------------------------------
  Total CPU time                                                  0.0310
--------------------------------------------------------------------------------


  Job Finished at 19:53.57  5th January    2020                               

