 vasp.5.3.5 31Mar14 (build Sep 10 2015 11:45:30) complex                        
  
 executed on             LinuxIFC date 2017.08.21  23:15:03
 running on   32 total cores
 distrk:  each k-point on   32 cores,    1 groups
 distr:  one band on NCORES_PER_BAND=  16 cores,    2 groups


--------------------------------------------------------------------------------------------------------


 INCAR:
 POTCAR:   PAW_PBE O 08Apr2002                    
 POTCAR:   PAW_PBE Si 05Jan2001                   
 POTCAR:   PAW_PBE Al 04Jan2001                   
 POTCAR:   PAW_PBE K_sv 06Sep2000                 

 ----------------------------------------------------------------------------- 
|                                                                             |
|           W    W    AA    RRRRR   N    N  II  N    N   GGGG   !!!           |
|           W    W   A  A   R    R  NN   N  II  NN   N  G    G  !!!           |
|           W    W  A    A  R    R  N N  N  II  N N  N  G       !!!           |
|           W WW W  AAAAAA  RRRRR   N  N N  II  N  N N  G  GGG   !            |
|           WW  WW  A    A  R   R   N   NN  II  N   NN  G    G                |
|           W    W  A    A  R    R  N    N  II  N    N   GGGG   !!!           |
|                                                                             |
|      For optimal performance we recommend to set                            |
|        NCORE= 4 - approx SQRT( number of cores)                             |
|      NCORE specifies how many cores store one orbital (NPAR=cpu/NCORE).     |
|      This setting can  greatly improve the performance of VASP for DFT.     |
|      The default, NPAR=number of cores might be grossly inefficient         |
|      on modern multi-core architectures or massively parallel machines.     |
|      Do your own testing !!!!                                               |
|      Unfortunately you need to use the default for GW and RPA calculations. |
|      (for HF NCORE is supported but not extensively tested yet)             |
|                                                                             |
 ----------------------------------------------------------------------------- 

 POTCAR:   PAW_PBE O 08Apr2002                    
  local pseudopotential read in
  atomic valenz-charges read in
  non local Contribution for L=           0  read in
    real space projection operators read in
  non local Contribution for L=           0  read in
    real space projection operators read in
  non local Contribution for L=           1  read in
    real space projection operators read in
  non local Contribution for L=           1  read in
    real space projection operators read in
    PAW grid and wavefunctions read in
 
   number of l-projection  operators is LMAX  =           4
   number of lm-projection operators is LMMAX =           8
 
 POTCAR:   PAW_PBE Si 05Jan2001                   
  local pseudopotential read in
  partial core-charges read in
  atomic valenz-charges read in
  non local Contribution for L=           0  read in
    real space projection operators read in
  non local Contribution for L=           0  read in
    real space projection operators read in
  non local Contribution for L=           1  read in
    real space projection operators read in
  non local Contribution for L=           1  read in
    real space projection operators read in
    PAW grid and wavefunctions read in
 
   number of l-projection  operators is LMAX  =           4
   number of lm-projection operators is LMMAX =           8
 
 POTCAR:   PAW_PBE Al 04Jan2001                   
  local pseudopotential read in
  partial core-charges read in
  atomic valenz-charges read in
  non local Contribution for L=           0  read in
    real space projection operators read in
  non local Contribution for L=           0  read in
    real space projection operators read in
  non local Contribution for L=           1  read in
    real space projection operators read in
  non local Contribution for L=           1  read in
    real space projection operators read in
    PAW grid and wavefunctions read in
 
   number of l-projection  operators is LMAX  =           4
   number of lm-projection operators is LMMAX =           8
 
 POTCAR:   PAW_PBE K_sv 06Sep2000                 
  local pseudopotential read in
  partial core-charges read in
  atomic valenz-charges read in
  non local Contribution for L=           0  read in
    real space projection operators read in
  non local Contribution for L=           0  read in
    real space projection operators read in
  non local Contribution for L=           1  read in
    real space projection operators read in
  non local Contribution for L=           1  read in
    real space projection operators read in
  non local Contribution for L=           2  read in
    real space projection operators read in
    PAW grid and wavefunctions read in
 
   number of l-projection  operators is LMAX  =           5
   number of lm-projection operators is LMMAX =          13
 
 PAW_PBE O 08Apr2002                    :
 energy of atom  1       EATOM= -432.3788
 kinetic energy error for atom=    0.0224 (will be added to EATOM!!)
 PAW_PBE Si 05Jan2001                   :
 energy of atom  2       EATOM= -103.0669
 kinetic energy error for atom=    0.0006 (will be added to EATOM!!)
 PAW_PBE Al 04Jan2001                   :
 energy of atom  3       EATOM=  -53.5387
 kinetic energy error for atom=    0.0003 (will be added to EATOM!!)
 PAW_PBE K_sv 06Sep2000                 :
 energy of atom  4       EATOM= -774.7423
 kinetic energy error for atom=    0.0017 (will be added to EATOM!!)
 
 
 POSCAR: siesta.XV                               
  positions in direct lattice
  velocities in cartesian coordinates
 exchange correlation table for  LEXCH =        8
   RHO(1)=    0.500       N(1)  =     2000
   RHO(2)=  100.500       N(2)  =     4000
 


--------------------------------------------------------------------------------------------------------


 ion  position               nearest neighbor table
   1  0.379  0.587  0.969- 193 1.63 211 1.63
   2  0.239  0.620  0.988- 202 1.62 193 1.62
   3  0.374  0.810  0.968- 194 1.62 212 1.62
   4  0.122  0.903  0.218- 243 1.62 209 1.62
   5  0.259  0.875  0.268- 243 1.62 204 1.62
   6  0.117  0.698  0.220- 244 1.62 210 1.63
   7  0.127  0.089  0.794- 215 1.62 245 1.62
   8  0.266  0.121  0.757- 206 1.62 245 1.63
   9  0.110  0.309  0.793- 246 1.60 216 1.63
  10  0.371  0.401  0.043- 213 1.62 199 1.62
  11  0.230  0.380  0.012- 208 1.61 199 1.62
  12  0.375  0.196  0.041- 200 1.62 214 1.63
  13  0.117  0.914  0.042- 209 1.62 201 1.62
  14  0.253  0.876  0.999- 201 1.62 194 1.62
  15  0.125  0.689  0.043- 202 1.62 210 1.62
  16  0.366  0.592  0.792- 211 1.62 251 1.62
  17  0.226  0.620  0.758- 196 1.62 251 1.62
  18  0.375  0.807  0.791- 252 1.62 212 1.62
  19  0.381  0.414  0.220- 213 1.62 253 1.63
  20  0.243  0.378  0.238- 198 1.61 253 1.62
  21  0.375  0.185  0.218- 254 1.62 214 1.63
  22  0.122  0.090  0.972- 215 1.62 207 1.63
  23  0.262  0.123  0.995- 200 1.62 207 1.62
  24  0.119  0.307  0.969- 216 1.61 208 1.61
  25  0.279  0.499  0.014- 193 1.62 199 1.62
  26  0.224  0.999  0.748- 245 1.63 195 1.63
  27  0.223  0.001  0.012- 207 1.62 201 1.63
  28  0.269  0.499  0.757- 251 1.62 205 1.63
  29  0.321  0.590  0.130- 193 1.63 203 1.63
  30  0.326  0.820  0.130- 204 1.62 194 1.62
  31  0.091  0.801  0.118- 209 1.62 210 1.62
  32  0.164  0.930  0.880- 201 1.62 195 1.62
  33  0.173  0.702  0.879- 202 1.62 196 1.62
  34  0.397  0.699  0.884- 212 1.62 211 1.62
  35  0.179  0.089  0.131- 197 1.62 207 1.62
  36  0.164  0.304  0.131- 208 1.62 198 1.62
  37  0.401  0.299  0.144- 214 1.62 213 1.62
  38  0.320  0.420  0.883- 199 1.62 205 1.62
  39  0.326  0.199  0.878- 206 1.62 200 1.62
  40  0.098  0.197  0.880- 216 1.62 215 1.62
  41  0.252  0.748  0.014- 194 1.62 202 1.62
  42  0.252  0.746  0.744- 252 1.62 196 1.63
  43  0.247  0.252  0.006- 200 1.62 208 1.62
  44  0.236  0.247  0.755- 246 1.65 206 1.65 289 2.66
  45  0.995  0.899  0.134- 209 1.62 237 1.62
  46  0.998  0.700  0.121- 210 1.61 238 1.62
  47  0.001  0.100  0.880- 215 1.61 235 1.62
  48  0.994  0.289  0.891- 216 1.60 236 1.61
  49  0.873  0.082  0.956- 235 1.62 217 1.63
  50  0.734  0.118  0.993- 217 1.62 226 1.62
  51  0.863  0.304  0.951- 218 1.61 236 1.61
  52  0.622  0.411  0.204- 233 1.62 266 1.62
  53  0.763  0.385  0.232- 228 1.62 266 1.62
  54  0.627  0.186  0.208- 267 1.62 234 1.63
  55  0.618  0.590  0.780- 239 1.62 268 1.63
  56  0.753  0.631  0.740- 230 1.62 268 1.62
  57  0.615  0.807  0.783- 269 1.62 240 1.63
  58  0.880  0.910  0.029- 237 1.63 223 1.63
  59  0.742  0.872  0.004- 223 1.62 232 1.62
  60  0.874  0.686  0.035- 224 1.62 238 1.62
  61  0.614  0.402  0.026- 233 1.62 225 1.62
  62  0.755  0.375  0.009- 218 1.61 225 1.62
  63  0.616  0.189  0.032- 226 1.63 234 1.63
  64  0.887  0.084  0.779- 235 1.63 274 1.63
  65  0.754  0.132  0.757- 274 1.62 220 1.62
  66  0.886  0.298  0.776- 236 1.62 275 1.63
  67  0.863  0.902  0.205- 237 1.62 276 1.62
  68  0.723  0.882  0.249- 276 1.63 222 1.63
  69  0.875  0.695  0.211- 277 1.62 238 1.62
  70  0.618  0.586  0.956- 239 1.62 231 1.62
  71  0.758  0.615  0.992- 224 1.62 231 1.62
  72  0.624  0.806  0.959- 232 1.62 240 1.62
  73  0.773  0.996  0.004- 217 1.62 223 1.63
  74  0.728  0.506  0.757- 268 1.63 219 1.63
  75  0.713  0.496  0.008- 231 1.62 225 1.62
  76  0.774  0.005  0.747- 274 1.63 229 1.63
  77  0.827  0.082  0.120- 227 1.62 217 1.63
  78  0.835  0.307  0.123- 218 1.63 228 1.63
  79  0.595  0.297  0.127- 233 1.62 234 1.62
  80  0.676  0.419  0.872- 225 1.62 219 1.63
  81  0.675  0.197  0.873- 226 1.62 220 1.62
  82  0.898  0.192  0.875- 236 1.62 235 1.62
  83  0.663  0.586  0.120- 221 1.62 231 1.62
  84  0.669  0.804  0.124- 222 1.62 232 1.62
  85  0.903  0.799  0.112- 237 1.62 238 1.62
  86  0.821  0.921  0.870- 223 1.62 229 1.63
  87  0.825  0.688  0.873- 230 1.62 224 1.62
  88  0.595  0.697  0.872- 240 1.62 239 1.62
  89  0.748  0.262  0.749- 220 1.63 275 1.63
  90  0.749  0.759  0.760- 230 1.62 269 1.63
  91  0.745  0.245  0.014- 218 1.62 226 1.62
  92  0.747  0.744  0.001- 232 1.62 224 1.62
  93  0.497  0.395  0.124- 213 1.61 233 1.61
  94  0.498  0.201  0.131- 214 1.61 234 1.62
  95  0.495  0.603  0.868- 211 1.62 239 1.62
  96  0.497  0.794  0.881- 212 1.61 240 1.61
  97  0.374  0.585  0.470- 259 1.63 241 1.63
  98  0.235  0.621  0.494- 250 1.62 241 1.62
  99  0.373  0.812  0.466- 242 1.62 260 1.62
 100  0.120  0.911  0.718- 195 1.62 257 1.62
 101  0.255  0.875  0.765- 195 1.62 252 1.62
 102  0.117  0.700  0.720- 196 1.62 258 1.62
 103  0.120  0.085  0.291- 262 1.62 197 1.63
 104  0.260  0.119  0.272- 254 1.62 197 1.62
 105  0.130  0.313  0.298- 263 1.61 198 1.61
 106  0.371  0.407  0.539- 247 1.60 288 1.78 289 2.62
 107  0.231  0.375  0.503- 256 1.63 247 1.67 289 2.68
 108  0.374  0.208  0.544- 248 1.62 261 1.65 289 2.83
 109  0.117  0.918  0.542- 249 1.62 257 1.62
 110  0.252  0.878  0.502- 249 1.61 242 1.62
 111  0.122  0.693  0.542- 250 1.62 258 1.62
 112  0.370  0.596  0.293- 203 1.62 259 1.62
 113  0.228  0.621  0.260- 244 1.62 203 1.62
 114  0.376  0.801  0.290- 204 1.62 260 1.62
 115  0.373  0.410  0.720- 205 1.60 288 1.77 289 2.66
 116  0.233  0.376  0.756- 246 1.63 205 1.66 289 2.64
 117  0.372  0.206  0.715- 206 1.62 261 1.65 289 2.83
 118  0.127  0.098  0.467- 262 1.62 255 1.62
 119  0.269  0.123  0.507- 248 1.62 255 1.63
 120  0.108  0.303  0.470- 256 1.60 263 1.63
 121  0.269  0.498  0.505- 241 1.63 247 1.63
 122  0.221  0.997  0.245- 197 1.62 243 1.63
 123  0.222  0.003  0.506- 255 1.62 249 1.63
 124  0.276  0.502  0.249- 253 1.62 203 1.62
 125  0.316  0.580  0.630- 241 1.62 251 1.63
 126  0.326  0.820  0.630- 252 1.62 242 1.62
 127  0.094  0.805  0.622- 257 1.62 258 1.63
 128  0.164  0.929  0.379- 249 1.62 243 1.62
 129  0.172  0.702  0.380- 244 1.62 250 1.62
 130  0.401  0.698  0.393- 260 1.62 259 1.62
 131  0.174  0.085  0.630- 245 1.62 255 1.63
 132  0.162  0.311  0.631- 246 1.64 256 1.64 289 2.64
 133  0.438  0.304  0.632- 261 1.60 288 1.78 289 2.40
 134  0.319  0.420  0.377- 253 1.61 247 1.62
 135  0.327  0.199  0.382- 248 1.62 254 1.62
 136  0.095  0.198  0.367- 263 1.62 262 1.63
 137  0.252  0.749  0.513- 242 1.62 250 1.62
 138  0.249  0.747  0.242- 204 1.62 244 1.62
 139  0.237  0.248  0.507- 256 1.65 248 1.65 289 2.64
 140  0.250  0.247  0.249- 254 1.62 198 1.62
 141  0.995  0.901  0.633- 257 1.61 284 1.62
 142  0.997  0.708  0.625- 258 1.61 285 1.61
 143  0.000  0.099  0.383- 262 1.62 282 1.62
 144  0.998  0.296  0.361- 263 1.61 283 1.61
 145  0.871  0.097  0.457- 282 1.62 264 1.62
 146  0.732  0.123  0.497- 264 1.62 273 1.62
 147  0.883  0.290  0.466- 283 1.62 265 1.62
 148  0.648  0.405  0.703- 219 1.61 280 1.62
 149  0.783  0.387  0.760- 275 1.62 219 1.63
 150  0.632  0.189  0.707- 220 1.62 281 1.62
 151  0.616  0.597  0.283- 221 1.62 286 1.62
 152  0.755  0.627  0.244- 277 1.62 221 1.62
 153  0.616  0.798  0.284- 222 1.62 287 1.62
 154  0.880  0.916  0.529- 284 1.63 270 1.63
 155  0.742  0.878  0.507- 270 1.62 279 1.62
 156  0.875  0.689  0.536- 271 1.62 285 1.62
 157  0.638  0.393  0.529- 272 1.61 280 1.63
 158  0.776  0.377  0.477- 265 1.62 272 1.63
 159  0.618  0.197  0.531- 273 1.62 281 1.63
 160  0.884  0.080  0.281- 282 1.63 227 1.63
 161  0.749  0.127  0.257- 227 1.62 267 1.62
 162  0.869  0.312  0.292- 283 1.61 228 1.61
 163  0.866  0.908  0.706- 284 1.62 229 1.62
 164  0.725  0.886  0.745- 229 1.62 269 1.62
 165  0.873  0.700  0.711- 230 1.62 285 1.62
 166  0.621  0.581  0.458- 286 1.62 278 1.62
 167  0.758  0.620  0.496- 271 1.62 278 1.62
 168  0.626  0.811  0.459- 279 1.62 287 1.62
 169  0.776  0.002  0.494- 264 1.62 270 1.63
 170  0.716  0.505  0.245- 221 1.62 266 1.62
 171  0.726  0.495  0.495- 278 1.62 272 1.63
 172  0.773  0.001  0.243- 227 1.63 276 1.63
 173  0.827  0.082  0.620- 274 1.62 264 1.62
 174  0.827  0.317  0.621- 265 1.62 275 1.62
 175  0.590  0.300  0.633- 281 1.62 280 1.64
 176  0.674  0.419  0.365- 266 1.62 272 1.62
 177  0.673  0.197  0.372- 267 1.62 273 1.62
 178  0.906  0.195  0.350- 283 1.62 282 1.62
 179  0.670  0.571  0.621- 268 1.62 278 1.62
 180  0.671  0.805  0.623- 269 1.62 279 1.62
 181  0.899  0.804  0.611- 284 1.62 285 1.62
 182  0.822  0.919  0.369- 270 1.62 276 1.63
 183  0.827  0.688  0.373- 277 1.62 271 1.62
 184  0.592  0.697  0.391- 287 1.62 286 1.63
 185  0.745  0.256  0.243- 267 1.62 228 1.62
 186  0.753  0.757  0.254- 277 1.62 222 1.62
 187  0.748  0.251  0.505- 265 1.62 273 1.62
 188  0.749  0.749  0.497- 279 1.62 271 1.62
 189  0.520  0.417  0.625- 280 1.60 288 1.72
 190  0.503  0.191  0.633- 261 1.62 281 1.64
 191  0.495  0.599  0.378- 259 1.62 286 1.62
 192  0.498  0.795  0.383- 260 1.61 287 1.62
 193  0.305  0.574  0.026-  25 1.62   2 1.62  29 1.63   1 1.63 211 3.08 199 3.11 203 3.12 202 3.14

 194  0.301  0.813  0.028-  14 1.62   3 1.62  30 1.62  41 1.62 212 3.09 204 3.10
 195  0.191  0.928  0.778- 101 1.62 100 1.62  32 1.62  26 1.63 245 3.06 201 3.11 257 3.15
 196  0.193  0.692  0.775-  17 1.62 102 1.62  33 1.62  42 1.63 258 3.09 202 3.11 251 3.14
 197  0.195  0.072  0.235-  35 1.62 104 1.62 122 1.62 103 1.63 243 3.08 262 3.10 207 3.12
 198  0.198  0.310  0.230-  20 1.61 105 1.61  36 1.62 140 1.62 208 3.03 263 3.10
 199  0.300  0.425  0.988-  38 1.62  10 1.62  25 1.62  11 1.62 193 3.11 208 3.14
 200  0.302  0.193  0.981-  12 1.62  43 1.62  23 1.62  39 1.62 206 3.09 214 3.11
 201  0.189  0.930  0.984-  14 1.62  32 1.62  13 1.62  27 1.63 207 3.06 195 3.11 209 3.13
 202  0.198  0.690  0.981-  15 1.62   2 1.62  41 1.62  33 1.62 210 3.10 196 3.11 193 3.14
 203  0.299  0.577  0.233- 112 1.62 124 1.62 113 1.62  29 1.63 253 3.11 193 3.12 244 3.13
 204  0.302  0.811  0.233- 114 1.62  30 1.62 138 1.62   5 1.62 194 3.10 260 3.11
 205  0.302  0.427  0.779- 115 1.60  38 1.62  28 1.63 116 1.66 251 3.08 289 3.20
 206  0.300  0.193  0.776-  39 1.62 117 1.62   8 1.62  44 1.65 200 3.09 245 3.15 289 3.33
 207  0.197  0.075  0.028-  23 1.62  35 1.62  27 1.62  22 1.63 201 3.06 215 3.11 197 3.12
 208  0.191  0.311  0.029-  24 1.61  11 1.61  36 1.62  43 1.62 198 3.03 216 3.08 199 3.14
 209  0.081  0.879  0.128-  45 1.62  31 1.62   4 1.62  13 1.62 237 3.12 201 3.13
 210  0.083  0.722  0.126-  46 1.61  15 1.62  31 1.62   6 1.63 244 3.08 202 3.10 238 3.11
 211  0.409  0.620  0.878-  95 1.62  16 1.62  34 1.62   1 1.63 193 3.08 239 3.15
 212  0.411  0.777  0.881-  96 1.61  18 1.62  34 1.62   3 1.62 194 3.09 252 3.09 240 3.14
 213  0.412  0.377  0.132-  93 1.61  10 1.62  19 1.62  37 1.62 253 3.07 233 3.12
 214  0.413  0.221  0.133-  94 1.61  37 1.62  12 1.63  21 1.63 254 3.07 200 3.11 234 3.13
 215  0.087  0.119  0.881-  47 1.61  22 1.62   7 1.62  40 1.62 207 3.11
 216  0.080  0.274  0.884-  48 1.60  24 1.61  40 1.62   9 1.63 246 3.02 208 3.08 236 3.11
 217  0.801  0.070  0.018-  50 1.62  73 1.62  49 1.63  77 1.63 223 3.05 227 3.12
 218  0.799  0.308  0.024-  51 1.61  62 1.61  91 1.62  78 1.63 228 3.00 236 3.14
 219  0.708  0.429  0.773- 148 1.61  80 1.63  74 1.63 149 1.63 275 3.06 268 3.08 225 3.12
 220  0.703  0.195  0.771- 150 1.62  65 1.62  81 1.62  89 1.63 281 3.10 226 3.12
 221  0.687  0.579  0.223- 152 1.62 170 1.62  83 1.62 151 1.62 231 3.09 266 3.11 286 3.13
 222  0.691  0.810  0.228-  84 1.62 153 1.62 186 1.62  68 1.63 287 3.09 276 3.11 232 3.11
 223  0.804  0.925  0.976-  59 1.62  86 1.62  73 1.63  58 1.63 217 3.05 237 3.07
 224  0.801  0.683  0.975-  71 1.62  87 1.62  60 1.62  92 1.62 238 3.08 230 3.10
 225  0.690  0.423  0.978-  80 1.62  62 1.62  75 1.62  61 1.62 233 3.06 231 3.10 219 3.12
 226  0.693  0.187  0.977-  81 1.62  91 1.62  50 1.62  63 1.63 234 3.04 220 3.12
 227  0.808  0.073  0.225- 161 1.62  77 1.62 172 1.63 160 1.63 282 3.06 276 3.08 217 3.12
 228  0.802  0.315  0.223- 162 1.61  53 1.62 185 1.62  78 1.63 218 3.00 283 3.11 266 3.14
 229  0.797  0.930  0.767- 164 1.62 163 1.62  86 1.63  76 1.63 274 3.07 269 3.12
 230  0.799  0.694  0.770-  56 1.62 165 1.62  87 1.62  90 1.62 224 3.10 285 3.11
 231  0.688  0.571  0.019-  75 1.62  71 1.62  70 1.62  83 1.62 221 3.09 225 3.10 239 3.14
 232  0.696  0.806  0.022-  59 1.62  72 1.62  92 1.62  84 1.62 240 3.11 222 3.11
 233  0.583  0.376  0.120-  93 1.61  52 1.62  61 1.62  79 1.62 225 3.06 213 3.12 266 3.14
 234  0.584  0.219  0.124-  94 1.62  79 1.62  54 1.63  63 1.63 226 3.04 267 3.09 214 3.13
 235  0.915  0.114  0.872-  47 1.62  49 1.62  82 1.62  64 1.63 274 3.04
 236  0.910  0.270  0.873-  48 1.61  51 1.61  82 1.62  66 1.62 275 3.01 216 3.11 218 3.14
 237  0.910  0.877  0.120-  85 1.62  67 1.62  45 1.62  58 1.63 223 3.07 209 3.12
 238  0.912  0.720  0.120-  46 1.62  69 1.62  60 1.62  85 1.62 224 3.08 277 3.10 210 3.11
 239  0.582  0.619  0.869-  95 1.62  70 1.62  55 1.62  88 1.62 268 3.12 231 3.14 211 3.15
 240  0.583  0.776  0.874-  96 1.61  72 1.62  88 1.62  57 1.63 269 3.06 232 3.11 212 3.14
 241  0.299  0.571  0.525-  98 1.62 125 1.62 121 1.63  97 1.63 247 3.06 259 3.11
 242  0.300  0.814  0.527- 110 1.62  99 1.62 126 1.62 137 1.62 260 3.09 252 3.10
 243  0.191  0.926  0.277-   5 1.62   4 1.62 128 1.62 122 1.63 197 3.08 249 3.10
 244  0.192  0.692  0.276-   6 1.62 129 1.62 113 1.62 138 1.62 210 3.08 250 3.12 203 3.13
 245  0.198  0.074  0.733-   7 1.62 131 1.62  26 1.63   8 1.63 195 3.06 255 3.10 206 3.15
 246  0.184  0.311  0.736-   9 1.60 116 1.63 132 1.64  44 1.65 289 2.76 216 3.02
 247  0.300  0.426  0.482- 106 1.60 134 1.62 121 1.63 107 1.67 241 3.06 289 3.20
 248  0.302  0.194  0.485- 135 1.62 119 1.62 108 1.62 139 1.65 254 3.10 255 3.13 289 3.32
 249  0.189  0.931  0.482- 110 1.61 128 1.62 109 1.62 123 1.63 255 3.07 243 3.10 257 3.12
 250  0.196  0.691  0.482-  98 1.62 111 1.62 129 1.62 137 1.62 258 3.09 244 3.12
 251  0.295  0.573  0.734-  28 1.62  16 1.62  17 1.62 125 1.63 205 3.08 196 3.14
 252  0.301  0.812  0.733-  18 1.62 126 1.62 101 1.62  42 1.62 212 3.09 242 3.10
 253  0.305  0.429  0.272- 134 1.61  20 1.62 124 1.62  19 1.63 213 3.07 203 3.11
 254  0.302  0.188  0.280-  21 1.62 140 1.62 104 1.62 135 1.62 214 3.07 248 3.10
 255  0.198  0.077  0.527- 118 1.62 123 1.62 131 1.63 119 1.63 249 3.07 245 3.10 248 3.13
 256  0.183  0.310  0.525- 120 1.60 107 1.63 132 1.64 139 1.65 289 2.77 263 3.02
 257  0.081  0.883  0.629- 141 1.61 127 1.62 100 1.62 109 1.62 249 3.12 284 3.13 195 3.15
 258  0.083  0.727  0.627- 142 1.61 111 1.62 102 1.62 127 1.63 196 3.09 250 3.09 285 3.14
 259  0.410  0.620  0.384- 191 1.62 130 1.62 112 1.62  97 1.63 241 3.11 286 3.13
 260  0.412  0.776  0.383- 192 1.61  99 1.62 130 1.62 114 1.62 242 3.09 204 3.11 287 3.12
 261  0.425  0.227  0.631- 133 1.60 190 1.62 117 1.65 108 1.65 289 2.80 281 2.95
 262  0.086  0.120  0.377- 143 1.62 118 1.62 103 1.62 136 1.63 197 3.10 282 3.12
 263  0.082  0.276  0.373- 144 1.61 105 1.61 136 1.62 120 1.63 256 3.02 283 3.09 198 3.10
 264  0.802  0.076  0.517- 146 1.62 145 1.62 173 1.62 169 1.62 270 3.09 274 3.14
 265  0.807  0.309  0.517- 174 1.62 158 1.62 187 1.62 147 1.62 283 3.06 272 3.09
 266  0.694  0.430  0.262- 176 1.62  52 1.62  53 1.62 170 1.62 272 3.11 221 3.11 228 3.14 233 3.14

 267  0.699  0.191  0.269- 177 1.62 185 1.62  54 1.62 161 1.62 234 3.09 273 3.12
 268  0.693  0.574  0.724-  56 1.62 179 1.62  55 1.63  74 1.63 219 3.08 239 3.12 278 3.13
 269  0.691  0.814  0.728- 180 1.62  57 1.62 164 1.62  90 1.63 240 3.06 279 3.12 229 3.12
 270  0.805  0.929  0.474- 155 1.62 182 1.62 169 1.63 154 1.63 284 3.07 264 3.09 276 3.14
 271  0.801  0.687  0.476- 167 1.62 183 1.62 156 1.62 188 1.62 285 3.07 277 3.10
 272  0.703  0.421  0.467- 157 1.61 176 1.62 171 1.63 158 1.63 265 3.09 278 3.09 266 3.11
 273  0.694  0.192  0.476- 159 1.62 177 1.62 146 1.62 187 1.62 281 3.06 267 3.12
 274  0.810  0.076  0.725-  65 1.62 173 1.62  76 1.63  64 1.63 235 3.04 229 3.07 264 3.14
 275  0.810  0.316  0.726- 174 1.62 149 1.62  66 1.63  89 1.63 236 3.01 219 3.06
 276  0.796  0.926  0.267-  67 1.62  68 1.63 182 1.63 172 1.63 227 3.08 222 3.11 270 3.14
 277  0.801  0.692  0.270- 152 1.62 183 1.62  69 1.62 186 1.62 238 3.10 271 3.10
 278  0.694  0.567  0.517- 167 1.62 179 1.62 171 1.62 166 1.62 272 3.09 268 3.13 286 3.13
 279  0.698  0.811  0.521- 168 1.62 155 1.62 180 1.62 188 1.62 287 3.09 269 3.12
 280  0.596  0.379  0.622- 189 1.60 148 1.62 157 1.63 175 1.64 288 3.04
 281  0.586  0.222  0.626- 175 1.62 150 1.62 159 1.63 190 1.64 261 2.95 273 3.06 220 3.10
 282  0.915  0.118  0.368- 145 1.62 143 1.62 178 1.62 160 1.63 227 3.06 262 3.12
 283  0.913  0.273  0.368- 162 1.61 144 1.61 147 1.62 178 1.62 265 3.06 263 3.09 228 3.11
 284  0.910  0.882  0.620- 141 1.62 163 1.62 181 1.62 154 1.63 270 3.07 257 3.13
 285  0.911  0.726  0.621- 142 1.61 165 1.62 156 1.62 181 1.62 271 3.07 230 3.11 258 3.14
 286  0.581  0.619  0.377- 191 1.62 166 1.62 151 1.62 184 1.63 221 3.13 259 3.13 278 3.13
 287  0.583  0.775  0.379- 192 1.62 168 1.62 184 1.62 153 1.62 222 3.09 279 3.09 260 3.12
 288  0.431  0.391  0.629- 189 1.72 115 1.77 106 1.78 133 1.78 289 2.75 280 3.04
 289  0.307  0.315  0.630- 133 2.40 106 2.62 132 2.64 116 2.64 139 2.64 115 2.66  44 2.66 107 2.68
                           288 2.75 246 2.76 256 2.77 261 2.80 117 2.83 108 2.83 247 3.20 205 3.20
 

IMPORTANT INFORMATION: All symmetrisations will be switched off!
NOSYMM: (Re-)initialisation of all symmetry stuff for point group C_1.

 
 
 KPOINTS: K-points                                

Automatic generation of k-mesh.
Space group operators:
 irot       det(A)        alpha          n_x          n_y          n_z        tau_x        tau_y        tau_z
    1     1.000000     0.000000     1.000000     0.000000     0.000000     0.000000     0.000000     0.000000
 
 Subroutine IBZKPT returns following result:
 ===========================================
 
 Found      1 irreducible k-points:
 
 Following reciprocal coordinates:
            Coordinates               Weight
  0.000000  0.000000  0.000000      1.000000
 
 Following cartesian coordinates:
            Coordinates               Weight
  0.000000  0.000000  0.000000      1.000000
 


--------------------------------------------------------------------------------------------------------




 Dimension of arrays:
   k-points           NKPTS =      1   k-points in BZ     NKDIM =      1   number of bands    NBANDS=    926
   number of dos      NEDOS =    301   number of ions     NIONS =    289
   non local maximal  LDIM  =      5   non local SUM 2l+1 LMDIM =     13
   total plane-waves  NPLWV = ******
   max r-space proj   IRMAX =   6843   max aug-charges    IRDMAX=  19558
   dimension x,y,z NGX =   140 NGY =  150 NGZ =  112
   dimension x,y,z NGXF=   280 NGYF=  300 NGZF=  224
   support grid    NGXF=   280 NGYF=  300 NGZF=  224
   ions per type =             192  95   1   1
 NGX,Y,Z   is equivalent  to a cutoff of  12.75, 12.14, 12.34 a.u.
 NGXF,Y,Z  is equivalent  to a cutoff of  25.50, 24.29, 24.69 a.u.


 I would recommend the setting:
   dimension x,y,z NGX =   133 NGY =  150 NGZ =  110
 SYSTEM =  Al-fcc                                  
 POSCAR =  siesta.XV                               

 Startparameter for this run:
   NWRITE =      0    write-flag & timer
   PREC   = accura    normal or accurate (medium, high low for compatibility)
   ISTART =      0    job   : 0-new  1-cont  2-samecut
   ICHARG =      2    charge: 1-file 2-atom 10-const
   ISPIN  =      1    spin polarized calculation?
   LNONCOLLINEAR =      F non collinear calculations
   LSORBIT =      F    spin-orbit coupling
   INIWAV =      1    electr: 0-lowe 1-rand  2-diag
   LASPH  =      F    aspherical Exc in radial PAW
   METAGGA=      F    non-selfconsistent MetaGGA calc.

 Electronic Relaxation 1
   ENCUT  =  500.0 eV  36.75 Ry    6.06 a.u.  33.28 37.44 27.50*2*pi/ulx,y,z
   ENINI  =  500.0     initial cutoff
   ENAUG  =  605.4 eV  augmentation charge cutoff
   NELM   =    300;   NELMIN=  4; NELMDL=-12     # of ELM steps 
   EDIFF  = 0.1E-03   stopping-criterion for ELM
   LREAL  =      T    real-space projection
   NLSPLINE    = F    spline interpolate recip. space projectors
   LCOMPAT=      F    compatible to vasp.4.4
   GGA_COMPAT  = T    GGA compatible to vasp.4.4-vasp.4.6
   LMAXPAW     = -100 max onsite density
   LMAXMIX     =    2 max onsite mixed and CHGCAR
   VOSKOWN=      0    Vosko Wilk Nusair interpolation
   ROPT   =    0.00000   0.00000   0.00000   0.00000
 Ionic relaxation
   EDIFFG = -.1E-01   stopping-criterion for IOM
   NSW    =      0    number of steps for IOM
   NBLOCK =      1;   KBLOCK =      1    inner block; outer block 
   IBRION =     -1    ionic relax: 0-MD 1-quasi-New 2-CG
   NFREE  =      0    steps in history (QN), initial steepest desc. (CG)
   ISIF   =      0    stress and relaxation
   IWAVPR =     10    prediction:  0-non 1-charg 2-wave 3-comb
   ISYM   =      0    0-nonsym 1-usesym 2-fastsym
   LCORR  =      T    Harris-Foulkes like correction to forces

   POTIM  = 0.2000    time-step for ionic-motion
   TEIN   =    0.0    initial temperature
   TEBEG  =    0.0;   TEEND  =   0.0 temperature during run
   SMASS  =  -3.00    Nose mass-parameter (am)
   estimated Nose-frequenzy (Omega)   =  0.10E-29 period in steps =****** mass=  -0.762E-26a.u.
   SCALEE = 1.0000    scale energy and forces
   NPACO  =    256;   APACO  = 16.0  distance and # of slots for P.C.
   PSTRESS=    0.0 pullay stress

  Mass of Ions in am
   POMASS =  16.00 28.09 26.98 39.10
  Ionic Valenz
   ZVAL   =   6.00  4.00  3.00  9.00
  Atomic Wigner-Seitz radii
   RWIGS  =  -1.00 -1.00 -1.00 -1.00
  virtual crystal weights 
   VCA    =   1.00  1.00  1.00  1.00
   NELECT =    1544.0000    total number of electrons
   NUPDOWN=      -1.0000    fix difference up-down

 DOS related values:
   EMIN   =  10.00;   EMAX   =-10.00  energy-range for DOS
   EFERMI =   0.00
   ISMEAR =     0;   SIGMA  =   0.05  broadening in eV -4-tet -1-fermi 0-gaus

 Electronic relaxation 2 (details)
   IALGO  =     48    algorithm
   LDIAG  =      T    sub-space diagonalisation (order eigenvalues)
   LSUBROT=      F    optimize rotation matrix (better conditioning)
   TURBO    =      0    0=normal 1=particle mesh
   IRESTART =      0    0=no restart 2=restart with 2 vectors
   NREBOOT  =      0    no. of reboots
   NMIN     =      0    reboot dimension
   EREF     =   0.00    reference energy to select bands
   IMIX   =      4    mixing-type and parameters
     AMIX     =   0.40;   BMIX     =  1.00
     AMIX_MAG =   1.60;   BMIX_MAG =  1.00
     AMIN     =   0.10
     WC   =   100.;   INIMIX=   1;  MIXPRE=   1;  MAXMIX= -45

 Intra band minimization:
   WEIMIN = 0.0000     energy-eigenvalue tresh-hold
   EBREAK =  0.27E-07  absolut break condition
   DEPER  =   0.30     relativ break condition  

   TIME   =   0.40     timestep for ELM

  volume/ion in A,a.u.               =      19.57       132.04
  Fermi-wavevector in a.u.,A,eV,Ry     =   1.062084  2.007047 15.347665  1.128022
  Thomas-Fermi vector in A             =   2.197522
 
 Write flags
   LWAVE  =      F    write WAVECAR
   LCHARG =      F    write CHGCAR
   LVTOT  =      F    write LOCPOT, total local potential
   LVHAR  =      F    write LOCPOT, Hartree potential only
   LELF   =      F    write electronic localiz. function (ELF)
   LORBIT =      0    0 simple, 1 ext, 2 COOP (PROOUT)


 Dipole corrections
   LMONO  =      T    monopole corrections only (constant potential shift)
   LDIPOL =      F    correct potential (dipole corrections)
   IDIPOL =      4    1-x, 2-y, 3-z, 4-all directions 
   EPSILON=  1.0000000 bulk dielectric constant

 Exchange correlation treatment:
   GGA     =    PE    GGA type
   LEXCH   =     8    internal setting for exchange type
   VOSKOWN=      0    Vosko Wilk Nusair interpolation
   LHFCALC =     F    Hartree Fock is set to
   LHFONE  =     F    Hartree Fock one center treatment
   AEXX    =    0.0000 exact exchange contribution

 Linear response parameters
   LEPSILON=     F    determine dielectric tensor
   LRPA    =     F    only Hartree local field effects (RPA)
   LNABLA  =     F    use nabla operator in PAW spheres
   LVEL    =     F    velocity operator in full k-point grid
   LINTERFAST=   F  fast interpolation
   KINTER  =     0    interpolate to denser k-point grid
   CSHIFT  =0.1000    complex shift for real part using Kramers Kronig
   OMEGAMAX=  -1.0    maximum frequency
   DEG_THRESHOLD= 0.2000000E-02 threshold for treating states as degnerate
   RTIME   =    0.100 relaxation time in fs

 Orbital magnetization related:
   ORBITALMAG=     F  switch on orbital magnetization
   LCHIMAG   =     F  perturbation theory with respect to B field
   DQ        =  0.001000  dq finite difference perturbation B field



--------------------------------------------------------------------------------------------------------


 Static calculation
 charge density and potential will be updated during run
 non-spin polarized calculation
 RMM-DIIS sequential band-by-band
 perform sub-space diagonalisation
    before iterative eigenvector-optimisation
 modified Broyden-mixing scheme, WC =      100.0
 initial mixing is a Kerker type mixing with AMIX =  0.4000 and BMIX =      1.0000
 Hartree-type preconditioning will be used
 using additional bands          154
 real space projection scheme for non local part
 use partial core corrections
 calculate Harris-corrections to forces 
   (improved forces if not selfconsistent)
 use gradient corrections 
 use of overlap-Matrix (Vanderbilt PP)
 Gauss-broadening in eV      SIGMA  =   0.05


--------------------------------------------------------------------------------------------------------


  energy-cutoff  :      500.00
  volume of cell :     5654.52
      direct lattice vectors                 reciprocal lattice vectors
    18.256000000  0.000000000  0.000000000     0.054776512  0.000000000  0.000000000
     0.000000000 20.534000000  0.000000000     0.000000000  0.048699718  0.000000000
     0.000000000  0.000000000 15.084000000     0.000000000  0.000000000  0.066295412

  length of vectors
    18.256000000 20.534000000 15.084000000     0.054776512  0.048699718  0.066295412


 
 k-points in units of 2pi/SCALE and weight: K-points                                
   0.00000000  0.00000000  0.00000000       1.000
 
 k-points in reciprocal lattice and weights: K-points                                
   0.00000000  0.00000000  0.00000000       1.000
 
 position of ions in fractional coordinates (direct lattice) 
   0.37946266  0.58719180  0.96922788
   0.23943845  0.62026070  0.98849110
   0.37416531  0.81007596  0.96768547
   0.12155688  0.90291045  0.21790225
   0.25917278  0.87508706  0.26812501
   0.11650397  0.69765963  0.21963795
   0.12701325  0.08892769  0.79422451
   0.26644534  0.12131741  0.75679027
   0.10959067  0.30888461  0.79315653
   0.37135632  0.40106851  0.04285500
   0.23006140  0.38049421  0.01211665
   0.37547877  0.19604721  0.04141281
   0.11683533  0.91412845  0.04209984
   0.25295181  0.87632548  0.99943946
   0.12536463  0.68855172  0.04299153
   0.36644536  0.59237439  0.79199656
   0.22577222  0.61980543  0.75798761
   0.37525107  0.80650523  0.79104712
   0.38069732  0.41398390  0.21954245
   0.24277815  0.37761020  0.23755286
   0.37492126  0.18516312  0.21810570
   0.12225143  0.08968828  0.97166459
   0.26247909  0.12274611  0.99523984
   0.11880259  0.30715716  0.96856411
   0.27868937  0.49941822  0.01442254
   0.22416029  0.99889053  0.74796645
   0.22266201  0.00059233  0.01151660
   0.26915301  0.49893788  0.75742109
   0.32140242  0.58964230  0.12981735
   0.32563053  0.81962742  0.13040913
   0.09054491  0.80072774  0.11776645
   0.16446130  0.93040253  0.88029352
   0.17320023  0.70208690  0.87937034
   0.39724123  0.69859358  0.88381835
   0.17857878  0.08850308  0.13130757
   0.16422278  0.30392666  0.13083628
   0.40098028  0.29873650  0.14387076
   0.32015413  0.41970436  0.88347611
   0.32642545  0.19944279  0.87811906
   0.09828424  0.19728888  0.87984109
   0.25248304  0.74750302  0.01436306
   0.25226311  0.74603548  0.74350213
   0.24717923  0.25172645  0.00584455
   0.23603122  0.24740839  0.75464187
   0.99512186  0.89860370  0.13411776
   0.99797910  0.69994321  0.12121380
   0.00140010  0.09968163  0.88023847
   0.99407500  0.28881867  0.89108086
   0.87272568  0.08161005  0.95580488
   0.73399811  0.11805031  0.99252230
   0.86314677  0.30409663  0.95083268
   0.62206755  0.41110897  0.20375639
   0.76282997  0.38522795  0.23156957
   0.62678361  0.18598078  0.20751294
   0.61839244  0.58960136  0.77961064
   0.75329718  0.63085978  0.73988726
   0.61493944  0.80716506  0.78281430
   0.88035508  0.91018808  0.02901222
   0.74216844  0.87242814  0.00401322
   0.87435159  0.68555461  0.03521315
   0.61398606  0.40165812  0.02610646
   0.75522580  0.37523841  0.00923798
   0.61596012  0.18919592  0.03163238
   0.88708299  0.08390545  0.77854310
   0.75397947  0.13175184  0.75671578
   0.88644211  0.29799326  0.77616178
   0.86332214  0.90212350  0.20499859
   0.72264857  0.88224448  0.24939271
   0.87535962  0.69471245  0.21129137
   0.61772803  0.58649132  0.95632348
   0.75803911  0.61539882  0.99186394
   0.62409615  0.80611831  0.95939653
   0.77271244  0.99590804  0.00367143
   0.72848551  0.50562200  0.75683647
   0.71322790  0.49604423  0.00794759
   0.77434528  0.00493363  0.74743139
   0.82650806  0.08179065  0.12040570
   0.83466278  0.30694906  0.12253096
   0.59521811  0.29737838  0.12735385
   0.67632467  0.41903726  0.87203880
   0.67471410  0.19740783  0.87317641
   0.89783160  0.19203453  0.87464438
   0.66293349  0.58583874  0.12030259
   0.66933625  0.80404538  0.12398412
   0.90314325  0.79875808  0.11196284
   0.82118793  0.92078346  0.87042752
   0.82528585  0.68812090  0.87260829
   0.59543728  0.69735524  0.87175370
   0.74800448  0.26155268  0.74931832
   0.74937316  0.75940840  0.75956365
   0.74475820  0.24549162  0.01436761
   0.74709745  0.74356240  0.00127654
   0.49741170  0.39458752  0.12365780
   0.49819524  0.20058603  0.13113088
   0.49517800  0.60265255  0.86751980
   0.49715553  0.79377590  0.88096149
   0.37376380  0.58507388  0.47025191
   0.23486354  0.62119879  0.49394945
   0.37306324  0.81239189  0.46645554
   0.11951602  0.91063660  0.71841690
   0.25498771  0.87473218  0.76508817
   0.11724554  0.70000923  0.71952930
   0.12049151  0.08452035  0.29069723
   0.25992110  0.11861816  0.27227358
   0.12993494  0.31253384  0.29824600
   0.37108266  0.40676488  0.53883060
   0.23056336  0.37544893  0.50296135
   0.37426460  0.20801134  0.54421431
   0.11661062  0.91794299  0.54193160
   0.25211480  0.87791941  0.50153540
   0.12237242  0.69334571  0.54239001
   0.36976535  0.59588857  0.29309920
   0.22831625  0.62064066  0.25965221
   0.37611805  0.80091474  0.29040435
   0.37270119  0.40967397  0.72042623
   0.23309330  0.37574078  0.75634989
   0.37173968  0.20647218  0.71525783
   0.12737938  0.09751515  0.46735556
   0.26862117  0.12253082  0.50654248
   0.10803318  0.30332071  0.47018869
   0.26904449  0.49803930  0.50459589
   0.22080172  0.99664007  0.24489460
   0.22242421  0.00270017  0.50555637
   0.27613648  0.50155411  0.24903144
   0.31636798  0.57994882  0.63014487
   0.32552297  0.81962597  0.62998015
   0.09421856  0.80526325  0.62175326
   0.16372697  0.92852415  0.37914289
   0.17243515  0.70190307  0.37951030
   0.40064592  0.69810135  0.39331859
   0.17351481  0.08513278  0.63014757
   0.16217902  0.31079570  0.63070044
   0.43772608  0.30449044  0.63231557
   0.31879869  0.41964893  0.37666440
   0.32659475  0.19928222  0.38202669
   0.09493329  0.19830872  0.36700832
   0.25189188  0.74874381  0.51284895
   0.24920834  0.74743616  0.24247717
   0.23745107  0.24772716  0.50655860
   0.24956919  0.24747895  0.24917100
   0.99524286  0.90091531  0.63250015
   0.99708327  0.70751920  0.62473749
   0.00049138  0.09931978  0.38323018
   0.99761726  0.29583339  0.36109972
   0.87143563  0.09677508  0.45682182
   0.73231274  0.12279115  0.49746569
   0.88288941  0.29026717  0.46636673
   0.64755045  0.40491932  0.70319748
   0.78347962  0.38711860  0.76026596
   0.63223480  0.18934512  0.70700735
   0.61577796  0.59687983  0.28250222
   0.75488902  0.62740905  0.24433658
   0.61601578  0.79759034  0.28358689
   0.88038223  0.91575035  0.52921403
   0.74220280  0.87817254  0.50724471
   0.87502826  0.68941421  0.53580319
   0.63788272  0.39308245  0.52865469
   0.77637880  0.37664750  0.47674151
   0.61770485  0.19715403  0.53080957
   0.88391811  0.07969445  0.28119210
   0.74907370  0.12672355  0.25704210
   0.86941470  0.31249354  0.29210644
   0.86588774  0.90848557  0.70614033
   0.72518159  0.88583980  0.74526607
   0.87297648  0.70013179  0.71146200
   0.62138399  0.58057926  0.45784032
   0.75779968  0.61952941  0.49558895
   0.62577619  0.81131653  0.45861506
   0.77589263  0.00203496  0.49365329
   0.71576635  0.50547115  0.24468187
   0.72603106  0.49502104  0.49459315
   0.77349591  0.00076434  0.24335328
   0.82736713  0.08154354  0.61971968
   0.82694020  0.31741105  0.62119078
   0.59045309  0.29998337  0.63286330
   0.67414756  0.41869301  0.36532697
   0.67339878  0.19698203  0.37166017
   0.90565954  0.19535009  0.35009670
   0.67040562  0.57116314  0.62052994
   0.67118862  0.80506116  0.62346640
   0.89926922  0.80375245  0.61148007
   0.82171565  0.91930896  0.36933506
   0.82687296  0.68831206  0.37297221
   0.59232385  0.69651543  0.39081118
   0.74477676  0.25645015  0.24282833
   0.75266804  0.75673797  0.25432871
   0.74770595  0.25112724  0.50515272
   0.74937596  0.74875838  0.49705910
   0.51962066  0.41731344  0.62516579
   0.50316966  0.19099548  0.63299601
   0.49521029  0.59945092  0.37828100
   0.49763077  0.79540900  0.38261129
   0.30495168  0.57435540  0.02596742
   0.30067495  0.81317363  0.02770073
   0.19097496  0.92837111  0.77761067
   0.19270444  0.69198544  0.77523377
   0.19520504  0.07205031  0.23453109
   0.19785583  0.31016477  0.22976711
   0.30030872  0.42540107  0.98765798
   0.30228437  0.19258211  0.98123035
   0.18940470  0.92986504  0.98357206
   0.19803520  0.68989616  0.98137660
   0.29918777  0.57700668  0.23287511
   0.30192231  0.81071039  0.23317404
   0.30169165  0.42660605  0.77858146
   0.30011048  0.19301772  0.77617961
   0.19664325  0.07534888  0.02754991
   0.19148816  0.31083962  0.02916200
   0.08089891  0.87882158  0.12806158
   0.08276168  0.72212627  0.12562829
   0.40941733  0.62035636  0.87804411
   0.41097258  0.77668865  0.88085088
   0.41202663  0.37678871  0.13239549
   0.41274327  0.22078811  0.13332955
   0.08708688  0.11883487  0.88126930
   0.07999180  0.27441114  0.88379265
   0.80130999  0.07008249  0.01818880
   0.79883485  0.30774377  0.02373609
   0.70842966  0.42919926  0.77250229
   0.70280064  0.19526690  0.77112078
   0.68726640  0.57868900  0.22337283
   0.69064945  0.81003059  0.22787904
   0.80422517  0.92463806  0.97597065
   0.80061437  0.68346810  0.97549282
   0.68978154  0.42313888  0.97791525
   0.69291304  0.18732700  0.97740866
   0.80791565  0.07253053  0.22499156
   0.80223574  0.31491206  0.22253538
   0.79681465  0.92967563  0.76746832
   0.79923095  0.69434470  0.77042502
   0.68791115  0.57125400  0.01890493
   0.69622750  0.80638675  0.02171783
   0.58287452  0.37553475  0.12044680
   0.58418097  0.21892911  0.12415898
   0.91467287  0.11448638  0.87230968
   0.90984459  0.27022593  0.87278822
   0.91032421  0.87722517  0.12029987
   0.91249882  0.72030341  0.12005459
   0.58167107  0.61926784  0.86880738
   0.58290319  0.77559012  0.87369516
   0.29860115  0.57117879  0.52534274
   0.29999990  0.81436172  0.52734647
   0.19133711  0.92553762  0.27694307
   0.19210920  0.69187093  0.27553465
   0.19787640  0.07374941  0.73259437
   0.18363958  0.31139535  0.73631945
   0.30016688  0.42550084  0.48156369
   0.30195745  0.19383304  0.48474032
   0.18903154  0.93119317  0.48218580
   0.19595946  0.69149771  0.48230829
   0.29463757  0.57280414  0.73421515
   0.30112685  0.81164142  0.73261641
   0.30451641  0.42850566  0.27173397
   0.30224605  0.18790019  0.27964347
   0.19767146  0.07696864  0.52702007
   0.18292211  0.31026391  0.52487014
   0.08138572  0.88324734  0.62871075
   0.08275664  0.72686597  0.62722699
   0.40970974  0.61974701  0.38367813
   0.41187072  0.77619185  0.38306923
   0.42472370  0.22747311  0.63129098
   0.08582162  0.11991521  0.37727967
   0.08215857  0.27625613  0.37330878
   0.80164491  0.07581470  0.51691835
   0.80741731  0.30895103  0.51739333
   0.69384164  0.42988004  0.26166938
   0.69923372  0.19148802  0.26926440
   0.69284533  0.57422079  0.72437783
   0.69073634  0.81410526  0.72751158
   0.80486140  0.92852060  0.47425069
   0.80139489  0.68655633  0.47574656
   0.70287019  0.42116232  0.46720484
   0.69357539  0.19213870  0.47600461
   0.81009706  0.07558332  0.72482056
   0.81010415  0.31585936  0.72630142
   0.79552311  0.92592035  0.26664762
   0.80142443  0.69166237  0.27032342
   0.69405189  0.56694436  0.51711938
   0.69784971  0.81059195  0.52121091
   0.59623130  0.37916704  0.62247997
   0.58606853  0.22153257  0.62599253
   0.91512710  0.11781248  0.36797599
   0.91317162  0.27303804  0.36796390
   0.90990405  0.88194398  0.62005056
   0.91108317  0.72562647  0.62089068
   0.58120920  0.61860694  0.37722318
   0.58296905  0.77469573  0.37862626
   0.43053793  0.39084443  0.62940044
   0.30676988  0.31482863  0.63043701
 
 position of ions in cartesian coordinates  (Angst):
   6.92747024 12.05739651 14.61983341
   4.37118831 12.73643312 14.91039972
   6.83076184 16.63409984 14.59656758
   2.21914244 18.54036309  3.28683759
   4.73145836 17.96903775  4.04439759
   2.12689656 14.32574290  3.31301886
   2.31875393  1.82604109 11.98008248
   4.86422606  2.49113168 11.41542437
   2.00068728  6.34263657 11.96397308
   6.77948096  8.23554079  0.64642489
   4.20000101  7.81306801  0.18276759
   6.85474045  4.02563340  0.62467079
   2.13294587 18.77071351  0.63503404
   4.61788824 17.99446741 15.07554477
   2.28865670 14.13872092  0.64848427
   6.68982657 12.16381563 11.94647604
   4.12169766 12.72708479 11.43348503
   6.85058345 16.56077835 11.93215470
   6.95001032  8.50074548  3.31157835
   4.43215790  7.75384780  3.58324731
   6.84456257  3.80213948  3.28990635
   2.23182214  1.84165911 14.65658872
   4.79181833  2.52046856 15.01219774
   2.16886010  6.30716509 14.60982101
   5.08775316 10.25505372  0.21754967
   4.09227035 20.51121814 11.28232589
   4.06491773  0.01216282  0.17371642
   4.91365737 10.24519045 11.42493970
   5.86752258 12.10771496  1.95816488
   5.94471089 16.83022937  1.96709135
   1.65298793 16.44214341  1.77638909
   3.00240542 19.10488547 13.27834747
   3.16194344 14.41665249 13.26442218
   7.25203585 14.34492051 13.33151597
   3.26013415  1.81732221  1.98064345
   2.99805107  6.24082994  1.97353443
   7.32029601  6.13425525  2.17014654
   5.84473376  8.61820927 13.32635372
   5.95922302  4.09535825 13.24554788
   1.79427715  4.05112991 13.27152295
   4.60933044 15.34922693  0.21665233
   4.60531539 15.31909259 11.21498606
   4.51250400  5.16895095  0.08815914
   4.30898599  5.08028391 11.38301804
  18.16694469 18.45192831  2.02303232
  18.21910645 14.37263380  1.82838902
   0.02556014  2.04686254 13.27751709
  18.14783315  5.93060252 13.44106370
  15.93248009  1.67578077 14.41736076
  13.39986949  2.42404503 14.97120640
  15.75760745  6.24432024 14.34236010
  11.35646523  8.44171160  3.07346135
  13.92622390  7.91027062  3.49299542
  11.44256161  3.81892930  3.13012516
  11.28937246 12.10687425 11.75964690
  13.75219340 12.95407464 11.16045949
  11.22633448 16.57432736 11.80797092
  16.07176227 18.68980197  0.43762030
  13.54902708 17.91443952  0.06053535
  15.96216269 14.07717844  0.53115520
  11.20892950  8.24764789  0.39378986
  13.78740224  7.70514545  0.13934571
  11.24496791  3.88494908  0.47714277
  16.19458702  1.72291445 11.74354408
  13.76464915  2.70539236 11.41430089
  16.18288717  6.11899363 11.70762424
  15.76080890 18.52420389  3.09219870
  13.19267223 18.11600811  3.76183965
  15.98056525 14.26522537  3.18711897
  11.27724295 12.04301272 14.42518333
  13.83876197 12.63659935 14.96127573
  11.39349937 16.55283341 14.47153722
  14.10663835 20.44997564  0.05537988
  13.29923148 10.38244222 11.41612136
  13.02068848 10.18577219  0.11988145
  14.13644749  0.10130716 11.27425509
  15.08873119  1.67948928  1.81619964
  15.23760370  6.30289193  1.84825698
  10.86630190  6.10636758  1.92100555
  12.34698309  8.60451118 13.15383331
  12.31758066  4.05357240 13.17099298
  16.39081377  3.94323697 13.19313582
  12.10251378 12.02961272  1.81464424
  12.21940267 16.51026785  1.87017641
  16.48778325 16.40169840  1.68884753
  14.99160693 18.90736752 13.12952874
  15.06641847 14.12987465 13.16242347
  10.87030307 14.31949250 13.14953287
  13.65556981  5.37072264 11.30271753
  13.68055646 15.59369213 11.45725806
  13.59630576  5.04092496  0.21672109
  13.63901098 15.26831041  0.01925536
   9.08074800  8.10246023  1.86525431
   9.09505226  4.11883346  1.97797823
   9.03996952 12.37486739 13.08566862
   9.07607130 16.29939441 13.28842310
   6.82343201 12.01390699  7.09327980
   4.28766873 12.75569605  7.45073357
   6.81064254 16.68165508  7.03601535
   2.18188450 18.69901191 10.83660046
   4.65505558 17.96175068 11.54059000
   2.14043462 14.37398956 10.85338001
   2.19969294  1.73554080  4.38487700
   4.74511958  2.43570522  4.10697467
   2.37209228  6.41756986  4.49874263
   6.77448500  8.35251000  8.12772076
   4.20916476  7.70946825  7.58666897
   6.83257460  4.27130478  8.20892865
   2.12884340 18.84904137  8.17449631
   4.60260770 18.02719711  7.56516003
   2.23403094 14.23716088  8.18141097
   6.75043617 12.23597597  4.42110826
   4.16814139 12.74423527  3.91659395
   6.86641105 16.44598328  4.38045927
   6.80403289  8.41224528 10.86690923
   4.25535134  7.71546109 11.40878177
   6.78647966  4.23969968 10.78894907
   2.32543795  2.00237602  7.04959132
   4.90394815  2.51604793  7.64068669
   1.97225375  6.22838746  7.09232614
   4.91167622 10.22673906  7.61132445
   4.03095619 20.46500723  3.69399016
   4.06057639  0.05544521  7.62581232
   5.04114766 10.29891209  3.75639031
   5.77561383 11.90866912  9.50510521
   5.94274736 16.83019972  9.50262065
   1.72005404 16.53527557  9.37852613
   2.98899962 19.06631496  5.71899141
   3.14797613 14.41287756  5.72453333
   7.31419200 14.33481312  5.93281765
   3.16768638  1.74811658  9.50514601
   2.96074021  6.38187892  9.51348547
   7.99112726  6.25240671  9.53784803
   5.81998890  8.61707120  5.68160577
   5.96231373  4.09206104  5.76249060
   1.73310210  4.07207124  5.53595347
   4.59853820 15.37470544  7.73581361
   4.54954751 15.34785408  3.65752569
   4.33490665  5.08682955  7.64092985
   4.55613513  5.08173268  3.75849537
  18.16915372 18.49939504  9.54063223
  18.20275226 14.52819921  9.42354035
   0.00897071  2.03943243  5.78064409
  18.21250062  6.07464291  5.44682825
  15.90892892  1.98717946  6.89070031
  13.36910143  2.52139338  7.50377241
  16.11802898  5.96034613  7.03467573
  11.82168102  8.31461341 10.60703082
  14.30320394  7.94909332 11.46785174
  11.54207855  3.88801263 10.66449889
  11.24164241 12.25633034  4.26126354
  13.78125388 12.88321734  3.68557296
  11.24598413 16.37772006  4.27762469
  16.07225796 18.80401766  7.98266446
  13.54965434 18.03239501  7.65127924
  15.97451583 14.15643142  8.08205536
  11.64518696  8.07155510  7.97422733
  14.17357128  7.73407971  7.19116891
  11.27681968  4.04836075  8.00673148
  16.13680902  1.63644575  4.24150160
  13.67508940  2.60214128  3.87722305
  15.87203483  6.41674232  4.40613348
  15.80764662 18.65484276 10.65142068
  13.23891519 18.18983455 11.24159341
  15.93705857 14.37650610 10.73169276
  11.34398611 11.92161455  6.90606344
  13.83439094 12.72141700  7.47546371
  11.42417019 16.65957361  6.91774957
  14.16469590  0.04178593  7.44626615
  13.06703056 10.37934454  3.69078130
  13.25442301 10.16476203  7.46044305
  14.12094134  0.01569504  3.67074083
  15.10441437  1.67441506  9.34785163
  15.09662024  6.51771841  9.37004176
  10.77931162  6.15985862  9.54611000
  12.30723789  8.59744224  5.51059206
  12.29356818  4.04482904  5.60612193
  16.53372061  4.01131870  5.28085856
  12.23892501 11.72826392  9.36007358
  12.25321951 16.53112586  9.40436723
  16.41705895 16.50425287  9.22356542
  15.00124095 18.87709013  5.57105006
  15.09539271 14.13379974  5.62591288
  10.81346427 14.30224776  5.89499584
  13.59664444  5.26594732  3.66282258
  13.74070769 15.53885741  3.83629425
  13.65011990  5.15664680  7.61972367
  13.68060757 15.37500465  7.49763942
   9.48619475  8.56911409  9.43000084
   9.18586537  3.92190123  9.54811188
   9.04055900 12.30912526  5.70599060
   9.08474737 16.33292843  5.77130868
   5.56719785 11.79381384  0.39169260
   5.48912189 16.69770736  0.41783788
   3.48643881 19.06317229 11.72947929
   3.51801228 14.20922909 11.69362616
   3.56366328  1.47948101  3.53766695
   3.61205603  6.36892345  3.46580709
   5.48243596  8.73518557 14.89783292
   5.51850351  3.95448102 14.80087863
   3.45777222 19.09384866 14.83620089
   3.61533052 14.16632785 14.80308467
   5.46197194 11.84825508  3.51268822
   5.51189360 16.64712721  3.51719727
   5.50768278  8.75992863 11.74412279
   5.47881699  3.96342593 11.70789318
   3.58991926  1.54721397  0.41556282
   3.49580782  6.38278078  0.43987956
   1.47689059 18.04572223  1.93168080
   1.51089719 14.82814075  1.89497720
   7.47432285 12.73839741 13.24441735
   7.50271536 15.94852474 13.28675474
   7.52195816  7.73697944  1.99705363
   7.53504119  4.53366314  2.01114295
   1.58985812  2.44015517 13.29306617
   1.46033026  5.63475838 13.33112834
  14.62871512  1.43907378  0.27435982
  14.58352901  6.31921056  0.35803520
  12.93309191  8.81317760 11.65242451
  12.83032841  4.00961051 11.63158577
  12.54673533 11.88279993  3.36935577
  12.60849643 16.63316806  3.43732749
  14.68193463 18.98651785 14.72154132
  14.61601600 14.03433396 14.71433369
  12.59265176  8.68873384 14.75087357
  12.64982041  3.84657257 14.74323215
  14.74930816  1.48934184  3.39377262
  14.64561562  6.46640418  3.35672371
  14.54664820 19.08995946 11.57649221
  14.59076027 14.25767406 11.62109100
  12.55850596 11.73012972  0.28516201
  12.71032925 16.55834548  0.32759182
  10.64095724  7.71123058  1.81681949
  10.66480782  4.49549034  1.87281399
  16.69826786  2.35086327 13.15791924
  16.61012292  5.54881935 13.16513751
  16.61887882 18.01294156  1.81460329
  16.65857837 14.79071016  1.81090338
  10.61898710 12.71604592 13.10509059
  10.64148060 15.92596745 13.17881776
   5.45126256 11.72858534  7.92426993
   5.47679812 16.72210361  7.95449411
   3.49305021 19.00498949  4.17740926
   3.50714548 14.20687774  4.15616463
   3.61243149  1.51437029 11.05045342
   3.35252418  6.39419209 11.10664253
   5.47984647  8.73723418  7.26390675
   5.51253523  3.98016775  7.31182293
   3.45095978 19.12112055  7.27329059
   3.57743591 14.19921403  7.27513827
   5.37890352 11.76196031 11.07490139
   5.49737173 16.66624484 11.05078591
   5.55925152  8.79893523  4.09883515
   5.51780387  3.85834254  4.21814207
   3.60869010  1.58047398  7.94957079
   3.33942606  6.37095922  7.91714121
   1.48577777 18.13660084  9.48347291
   1.51080516 14.92546573  9.46109197
   7.47966102 12.72588511  5.78740088
   7.51911182 15.93832338  5.77821633
   7.75375592  4.67093277  9.52239315
   1.56675958  2.46233887  5.69088659
   1.49988677  5.67264340  5.63098970
  14.63482949  1.55677901  7.79719644
  14.74021040  6.34400043  7.80436101
  12.66677293  8.82715666  3.94702100
  12.76521086  3.93201499  4.06158417
  12.64858443 11.79104963 10.92651524
  12.61008256 16.71683732 10.97378469
  14.69354976 19.06624207  7.15359742
  14.63026506 14.09774765  7.17616116
  12.83159811  8.64814709  7.04731780
  12.66191233  3.94537599  7.18005360
  14.78913201  1.55202786 10.93319333
  14.78926138  6.48585611 10.95553066
  14.52306982 19.01284843  4.02211268
  14.63080431 14.20259505  4.07755849
  12.67061121 11.64163554  7.80022871
  12.73994427 16.64469514  7.86194534
  10.88479861  7.78581593  9.38948782
  10.69926703  4.54894981  9.44247129
  16.70656035  2.41916138  5.55054985
  16.67086104  5.60656303  5.55036743
  16.61120833 18.10983766  9.35284272
  16.63273438 14.90001387  9.36551508
  10.61055521 12.70247484  5.69003446
  10.64268291 15.90760216  5.71119848
   7.85990053  8.02559958  9.49387624
   5.60039093  6.46469112  9.50951189
 


--------------------------------------------------------------------------------------------------------


 k-point  1 :   0.0000 0.0000 0.0000  plane waves:  143595

 maximum and minimum number of plane-waves per node :      8979     8969

 maximum number of plane-waves:    143595
 maximum index in each direction: 
   IXMAX=   33   IYMAX=   37   IZMAX=   27
   IXMIN=  -33   IYMIN=  -37   IZMIN=  -27

 NGX is ok and might be reduce to 134
 NGY is ok and might be reduce to 150
 NGZ is ok and might be reduce to 110

 real space projection operators:
  total allocation   :      73862.62 KBytes
  max/ min on nodes  :       4782.88       4287.13


 parallel 3D FFT for wavefunctions:
    minimum data exchange during FFTs selected (reduces bandwidth)
 parallel 3D FFT for charge:
    minimum data exchange during FFTs selected (reduces bandwidth)


 total amount of memory used by VASP on root node   211714. kBytes
========================================================================

   base      :      30000. kBytes
   nonlr-proj:      39174. kBytes
   fftplans  :      24849. kBytes
   grid      :      49917. kBytes
   one-center:        154. kBytes
   wavefun   :      67620. kBytes
 
     INWAV:  cpu time    0.00: real time    0.00
 Broyden mixing: mesh for mixing (old mesh)
   NGX = 67   NGY = 75   NGZ = 55
  (NGX  =280   NGY  =300   NGZ  =224)
  gives a total of 276375 points

 initial charge density was supplied:
 charge density of overlapping atoms calculated
 number of electron    1544.0000000 magnetization 
 keeping initial charge density in first step


--------------------------------------------------------------------------------------------------------


 Maximum index for non-local projection operator          433
 Maximum index for augmentation-charges          672 (set IRDMAX)


--------------------------------------------------------------------------------------------------------


 First call to EWALD:  gamma=   0.099
 Maximum number of real-space cells 3x 2x 3
 Maximum number of reciprocal cells 3x 3x 2

 FEWALD executed in parallel
    FEWALD:  cpu time    0.02: real time    0.02


----------------------------------------- Iteration    1(   1)  ---------------------------------------


    POTLOK:  cpu time    0.73: real time    0.74
    SETDIJ:  cpu time    0.03: real time    0.03
    EDDIAG:  cpu time    7.82: real time    7.83
  RMM-DIIS:  cpu time   14.80: real time   14.85
    ORTHCH:  cpu time    1.42: real time    1.42
       DOS:  cpu time    0.00: real time    0.00
    --------------------------------------------
      LOOP:  cpu time   24.80: real time   24.88

 eigenvalue-minimisations  :   926
 total energy-change (2. order) : 0.2574549E+05  (-0.5574082E+05)
 number of electron    1544.0000000 magnetization 
 augmentation part     1544.0000000 magnetization 

 Free energy of the ion-electron system (eV)
  ---------------------------------------------------
  alpha Z        PSCENC =      1469.61440463
  Ewald energy   TEWEN  =    -12241.45600812
  -Hartree energ DENC   =    -72615.97710401
  -exchange      EXHF   =         0.00000000
  -V(xc)+E(xc)   XCENC  =      4532.34177423
  PAW double counting   =     50907.82805726   -49554.60653202
  entropy T*S    EENTRO =        -0.06759145
  eigenvalues    EBANDS =      9615.80856881
  atomic energy  EATOM  =     93632.00881969
  ---------------------------------------------------
  free energy    TOTEN  =     25745.49438901 eV

  energy without entropy =    25745.56198046  energy(sigma->0) =    25745.52818474


--------------------------------------------------------------------------------------------------------




----------------------------------------- Iteration    1(   2)  ---------------------------------------


    EDDIAG:  cpu time    7.68: real time    7.81
  RMM-DIIS:  cpu time   14.65: real time   14.91
    ORTHCH:  cpu time    1.40: real time    1.43
       DOS:  cpu time    0.00: real time    0.00
    --------------------------------------------
      LOOP:  cpu time   23.74: real time   24.16

 eigenvalue-minimisations  :   926
 total energy-change (2. order) :-0.1669106E+05  (-0.1823709E+05)
 number of electron    1544.0000000 magnetization 
 augmentation part     1544.0000000 magnetization 

 Free energy of the ion-electron system (eV)
  ---------------------------------------------------
  alpha Z        PSCENC =      1469.61440463
  Ewald energy   TEWEN  =    -12241.45600812
  -Hartree energ DENC   =    -72615.97710401
  -exchange      EXHF   =         0.00000000
  -V(xc)+E(xc)   XCENC  =      4532.34177423
  PAW double counting   =     50907.82805726   -49554.60653202
  entropy T*S    EENTRO =        -0.09806011
  eigenvalues    EBANDS =     -7075.22195069
  atomic energy  EATOM  =     93632.00881969
  ---------------------------------------------------
  free energy    TOTEN  =      9054.43340085 eV

  energy without entropy =     9054.53146097  energy(sigma->0) =     9054.48243091


--------------------------------------------------------------------------------------------------------




----------------------------------------- Iteration    1(   3)  ---------------------------------------


    EDDIAG:  cpu time    7.73: real time    7.86
  RMM-DIIS:  cpu time   14.72: real time   14.97
    ORTHCH:  cpu time    1.41: real time    1.43
       DOS:  cpu time    0.00: real time    0.00
    --------------------------------------------
      LOOP:  cpu time   23.86: real time   24.27

 eigenvalue-minimisations  :   926
 total energy-change (2. order) :-0.6459381E+04  (-0.7789007E+04)
 number of electron    1544.0000000 magnetization 
 augmentation part     1544.0000000 magnetization 

 Free energy of the ion-electron system (eV)
  ---------------------------------------------------
  alpha Z        PSCENC =      1469.61440463
  Ewald energy   TEWEN  =    -12241.45600812
  -Hartree energ DENC   =    -72615.97710401
  -exchange      EXHF   =         0.00000000
  -V(xc)+E(xc)   XCENC  =      4532.34177423
  PAW double counting   =     50907.82805726   -49554.60653202
  entropy T*S    EENTRO =        -0.00957196
  eigenvalues    EBANDS =    -13534.69176634
  atomic energy  EATOM  =     93632.00881969
  ---------------------------------------------------
  free energy    TOTEN  =      2595.05207335 eV

  energy without entropy =     2595.06164531  energy(sigma->0) =     2595.05685933


--------------------------------------------------------------------------------------------------------




----------------------------------------- Iteration    1(   4)  ---------------------------------------


    EDDIAG:  cpu time    7.77: real time    7.89
  RMM-DIIS:  cpu time   14.87: real time   14.91
    ORTHCH:  cpu time    1.42: real time    1.42
       DOS:  cpu time    0.00: real time    0.00
    --------------------------------------------
      LOOP:  cpu time   24.06: real time   24.24

 eigenvalue-minimisations  :   926
 total energy-change (2. order) :-0.3304970E+04  (-0.3271865E+04)
 number of electron    1544.0000000 magnetization 
 augmentation part     1544.0000000 magnetization 

 Free energy of the ion-electron system (eV)
  ---------------------------------------------------
  alpha Z        PSCENC =      1469.61440463
  Ewald energy   TEWEN  =    -12241.45600812
  -Hartree energ DENC   =    -72615.97710401
  -exchange      EXHF   =         0.00000000
  -V(xc)+E(xc)   XCENC  =      4532.34177423
  PAW double counting   =     50907.82805726   -49554.60653202
  entropy T*S    EENTRO =        -0.00016070
  eigenvalues    EBANDS =    -16839.67118212
  atomic energy  EATOM  =     93632.00881969
  ---------------------------------------------------
  free energy    TOTEN  =      -709.91793116 eV

  energy without entropy =     -709.91777046  energy(sigma->0) =     -709.91785081


--------------------------------------------------------------------------------------------------------




----------------------------------------- Iteration    1(   5)  ---------------------------------------


    EDDIAG:  cpu time    7.70: real time    7.83
  RMM-DIIS:  cpu time   14.62: real time   14.88
    ORTHCH:  cpu time    1.41: real time    1.43
       DOS:  cpu time    0.00: real time    0.00
    --------------------------------------------
      LOOP:  cpu time   23.73: real time   24.15

 eigenvalue-minimisations  :   926
 total energy-change (2. order) :-0.1284727E+04  (-0.1196925E+04)
 number of electron    1544.0000000 magnetization 
 augmentation part     1544.0000000 magnetization 

 Free energy of the ion-electron system (eV)
  ---------------------------------------------------
  alpha Z        PSCENC =      1469.61440463
  Ewald energy   TEWEN  =    -12241.45600812
  -Hartree energ DENC   =    -72615.97710401
  -exchange      EXHF   =         0.00000000
  -V(xc)+E(xc)   XCENC  =      4532.34177423
  PAW double counting   =     50907.82805726   -49554.60653202
  entropy T*S    EENTRO =        -0.00000000
  eigenvalues    EBANDS =    -18124.39818758
  atomic energy  EATOM  =     93632.00881969
  ---------------------------------------------------
  free energy    TOTEN  =     -1994.64477593 eV

  energy without entropy =    -1994.64477593  energy(sigma->0) =    -1994.64477593


--------------------------------------------------------------------------------------------------------




----------------------------------------- Iteration    1(   6)  ---------------------------------------


    EDDIAG:  cpu time    7.86: real time    7.89
  RMM-DIIS:  cpu time   14.84: real time   14.88
    ORTHCH:  cpu time    1.42: real time    1.42
       DOS:  cpu time    0.00: real time    0.00
    --------------------------------------------
      LOOP:  cpu time   24.13: real time   24.20

 eigenvalue-minimisations  :   926
 total energy-change (2. order) :-0.4145084E+03  (-0.3943210E+03)
 number of electron    1544.0000000 magnetization 
 augmentation part     1544.0000000 magnetization 

 Free energy of the ion-electron system (eV)
  ---------------------------------------------------
  alpha Z        PSCENC =      1469.61440463
  Ewald energy   TEWEN  =    -12241.45600812
  -Hartree energ DENC   =    -72615.97710401
  -exchange      EXHF   =         0.00000000
  -V(xc)+E(xc)   XCENC  =      4532.34177423
  PAW double counting   =     50907.82805726   -49554.60653202
  entropy T*S    EENTRO =        -0.00000000
  eigenvalues    EBANDS =    -18538.90654724
  atomic energy  EATOM  =     93632.00881969
  ---------------------------------------------------
  free energy    TOTEN  =     -2409.15313559 eV

  energy without entropy =    -2409.15313559  energy(sigma->0) =    -2409.15313559


--------------------------------------------------------------------------------------------------------




----------------------------------------- Iteration    1(   7)  ---------------------------------------


    EDDIAG:  cpu time    7.81: real time    7.84
  RMM-DIIS:  cpu time   14.85: real time   14.89
    ORTHCH:  cpu time    1.42: real time    1.42
       DOS:  cpu time    0.00: real time    0.00
    --------------------------------------------
      LOOP:  cpu time   24.09: real time   24.17

 eigenvalue-minimisations  :   926
 total energy-change (2. order) :-0.1189333E+03  (-0.1177637E+03)
 number of electron    1544.0000000 magnetization 
 augmentation part     1544.0000000 magnetization 

 Free energy of the ion-electron system (eV)
  ---------------------------------------------------
  alpha Z        PSCENC =      1469.61440463
  Ewald energy   TEWEN  =    -12241.45600812
  -Hartree energ DENC   =    -72615.97710401
  -exchange      EXHF   =         0.00000000
  -V(xc)+E(xc)   XCENC  =      4532.34177423
  PAW double counting   =     50907.82805726   -49554.60653202
  entropy T*S    EENTRO =        -0.00000000
  eigenvalues    EBANDS =    -18657.83985710
  atomic energy  EATOM  =     93632.00881969
  ---------------------------------------------------
  free energy    TOTEN  =     -2528.08644545 eV

  energy without entropy =    -2528.08644545  energy(sigma->0) =    -2528.08644545


--------------------------------------------------------------------------------------------------------




----------------------------------------- Iteration    1(   8)  ---------------------------------------


    EDDIAG:  cpu time    7.91: real time    7.93
  RMM-DIIS:  cpu time   14.97: real time   15.01
    ORTHCH:  cpu time    1.42: real time    1.43
       DOS:  cpu time    0.00: real time    0.00
    --------------------------------------------
      LOOP:  cpu time   24.31: real time   24.38

 eigenvalue-minimisations  :   926
 total energy-change (2. order) :-0.3979394E+02  (-0.3861137E+02)
 number of electron    1544.0000000 magnetization 
 augmentation part     1544.0000000 magnetization 

 Free energy of the ion-electron system (eV)
  ---------------------------------------------------
  alpha Z        PSCENC =      1469.61440463
  Ewald energy   TEWEN  =    -12241.45600812
  -Hartree energ DENC   =    -72615.97710401
  -exchange      EXHF   =         0.00000000
  -V(xc)+E(xc)   XCENC  =      4532.34177423
  PAW double counting   =     50907.82805726   -49554.60653202
  entropy T*S    EENTRO =        -0.00000000
  eigenvalues    EBANDS =    -18697.63380083
  atomic energy  EATOM  =     93632.00881969
  ---------------------------------------------------
  free energy    TOTEN  =     -2567.88038918 eV

  energy without entropy =    -2567.88038918  energy(sigma->0) =    -2567.88038918


--------------------------------------------------------------------------------------------------------




----------------------------------------- Iteration    1(   9)  ---------------------------------------


    EDDIAG:  cpu time    7.81: real time    7.83
  RMM-DIIS:  cpu time   33.63: real time   33.78
    ORTHCH:  cpu time    1.42: real time    1.42
       DOS:  cpu time    0.00: real time    0.00
    --------------------------------------------
      LOOP:  cpu time   42.87: real time   43.05

 eigenvalue-minimisations  :  2225
 total energy-change (2. order) :-0.1968003E+02  (-0.1951472E+02)
 number of electron    1544.0000000 magnetization 
 augmentation part     1544.0000000 magnetization 

 Free energy of the ion-electron system (eV)
  ---------------------------------------------------
  alpha Z        PSCENC =      1469.61440463
  Ewald energy   TEWEN  =    -12241.45600812
  -Hartree energ DENC   =    -72615.97710401
  -exchange      EXHF   =         0.00000000
  -V(xc)+E(xc)   XCENC  =      4532.34177423
  PAW double counting   =     50907.82805726   -49554.60653202
  entropy T*S    EENTRO =        -0.00000000
  eigenvalues    EBANDS =    -18717.31382805
  atomic energy  EATOM  =     93632.00881969
  ---------------------------------------------------
  free energy    TOTEN  =     -2587.56041640 eV

  energy without entropy =    -2587.56041640  energy(sigma->0) =    -2587.56041640


--------------------------------------------------------------------------------------------------------




----------------------------------------- Iteration    1(  10)  ---------------------------------------


    EDDIAG:  cpu time    7.81: real time    7.83
  RMM-DIIS:  cpu time   39.14: real time   39.25
    ORTHCH:  cpu time    1.43: real time    1.43
       DOS:  cpu time    0.00: real time    0.00
    --------------------------------------------
      LOOP:  cpu time   48.38: real time   48.53

 eigenvalue-minimisations  :  2577
 total energy-change (2. order) :-0.2615424E+01  (-0.2680674E+01)
 number of electron    1544.0000000 magnetization 
 augmentation part     1544.0000000 magnetization 

 Free energy of the ion-electron system (eV)
  ---------------------------------------------------
  alpha Z        PSCENC =      1469.61440463
  Ewald energy   TEWEN  =    -12241.45600812
  -Hartree energ DENC   =    -72615.97710401
  -exchange      EXHF   =         0.00000000
  -V(xc)+E(xc)   XCENC  =      4532.34177423
  PAW double counting   =     50907.82805726   -49554.60653202
  entropy T*S    EENTRO =        -0.00000000
  eigenvalues    EBANDS =    -18719.92925252
  atomic energy  EATOM  =     93632.00881969
  ---------------------------------------------------
  free energy    TOTEN  =     -2590.17584087 eV

  energy without entropy =    -2590.17584087  energy(sigma->0) =    -2590.17584087


--------------------------------------------------------------------------------------------------------




----------------------------------------- Iteration    1(  11)  ---------------------------------------


    EDDIAG:  cpu time    7.81: real time    7.83
  RMM-DIIS:  cpu time   39.69: real time   39.81
    ORTHCH:  cpu time    1.42: real time    1.42
       DOS:  cpu time    0.00: real time    0.00
    --------------------------------------------
      LOOP:  cpu time   48.92: real time   49.07

 eigenvalue-minimisations  :  2632
 total energy-change (2. order) : 0.2457500E-01  (-0.5425824E-01)
 number of electron    1544.0000000 magnetization 
 augmentation part     1544.0000000 magnetization 

 Free energy of the ion-electron system (eV)
  ---------------------------------------------------
  alpha Z        PSCENC =      1469.61440463
  Ewald energy   TEWEN  =    -12241.45600812
  -Hartree energ DENC   =    -72615.97710401
  -exchange      EXHF   =         0.00000000
  -V(xc)+E(xc)   XCENC  =      4532.34177423
  PAW double counting   =     50907.82805726   -49554.60653202
  entropy T*S    EENTRO =        -0.00000000
  eigenvalues    EBANDS =    -18719.90467751
  atomic energy  EATOM  =     93632.00881969
  ---------------------------------------------------
  free energy    TOTEN  =     -2590.15126586 eV

  energy without entropy =    -2590.15126586  energy(sigma->0) =    -2590.15126586


--------------------------------------------------------------------------------------------------------




----------------------------------------- Iteration    1(  12)  ---------------------------------------


    EDDIAG:  cpu time    7.80: real time    7.82
  RMM-DIIS:  cpu time   50.13: real time   50.27
    ORTHCH:  cpu time    1.42: real time    1.42
       DOS:  cpu time    0.00: real time    0.00
    CHARGE:  cpu time    2.66: real time    2.67
    MIXING:  cpu time    0.02: real time    0.02
    --------------------------------------------
      LOOP:  cpu time   62.03: real time   62.20

 eigenvalue-minimisations  :  3269
 total energy-change (2. order) :-0.1232033E-01  (-0.1438774E-01)
 number of electron    1543.9999975 magnetization 
 augmentation part      145.2532640 magnetization 

 Broyden mixing:
  rms(total) = 0.10589E+02    rms(broyden)= 0.10584E+02
  rms(prec ) = 0.11481E+02
  weight for this iteration     100.00

 Free energy of the ion-electron system (eV)
  ---------------------------------------------------
  alpha Z        PSCENC =      1469.61440463
  Ewald energy   TEWEN  =    -12241.45600812
  -Hartree energ DENC   =    -72615.97710401
  -exchange      EXHF   =         0.00000000
  -V(xc)+E(xc)   XCENC  =      4532.34177423
  PAW double counting   =     50907.82805726   -49554.60653202
  entropy T*S    EENTRO =        -0.00000000
  eigenvalues    EBANDS =    -18719.91699784
  atomic energy  EATOM  =     93632.00881969
  ---------------------------------------------------
  free energy    TOTEN  =     -2590.16358619 eV

  energy without entropy =    -2590.16358619  energy(sigma->0) =    -2590.16358619


--------------------------------------------------------------------------------------------------------




----------------------------------------- Iteration    1(  13)  ---------------------------------------


    POTLOK:  cpu time    0.71: real time    0.72
    SETDIJ:  cpu time    0.03: real time    0.03
    EDDIAG:  cpu time    7.81: real time    7.83
  RMM-DIIS:  cpu time   31.45: real time   31.50
    ORTHCH:  cpu time    1.42: real time    1.43
       DOS:  cpu time    0.00: real time    0.00
    CHARGE:  cpu time    2.59: real time    2.59
    MIXING:  cpu time    0.02: real time    0.02
    --------------------------------------------
      LOOP:  cpu time   44.05: real time   44.17

 eigenvalue-minimisations  :  2115
 total energy-change (2. order) : 0.3138974E+03  (-0.1435821E+03)
 number of electron    1543.9999979 magnetization 
 augmentation part      118.7640327 magnetization 

 Broyden mixing:
  rms(total) = 0.28813E+01    rms(broyden)= 0.28773E+01
  rms(prec ) = 0.30402E+01
  weight for this iteration     100.00

 eigenvalues of (default mixing * dielectric matrix)
  average eigenvalue GAMMA=   0.9863
  0.9863

 Free energy of the ion-electron system (eV)
  ---------------------------------------------------
  alpha Z        PSCENC =      1469.61440463
  Ewald energy   TEWEN  =    -12241.45600812
  -Hartree energ DENC   =    -76280.09039945
  -exchange      EXHF   =         0.00000000
  -V(xc)+E(xc)   XCENC  =      4767.51409523
  PAW double counting   =     60688.54671578   -59406.90382923
  entropy T*S    EENTRO =        -0.00000000
  eigenvalues    EBANDS =    -14905.49997361
  atomic energy  EATOM  =     93632.00881969
  ---------------------------------------------------
  free energy    TOTEN  =     -2276.26617508 eV

  energy without entropy =    -2276.26617508  energy(sigma->0) =    -2276.26617508


--------------------------------------------------------------------------------------------------------




----------------------------------------- Iteration    1(  14)  ---------------------------------------


    POTLOK:  cpu time    0.72: real time    0.72
    SETDIJ:  cpu time    0.03: real time    0.03
    EDDIAG:  cpu time    7.87: real time    7.90
  RMM-DIIS:  cpu time   32.36: real time   32.45
    ORTHCH:  cpu time    1.42: real time    1.42
       DOS:  cpu time    0.00: real time    0.00
    CHARGE:  cpu time    2.63: real time    2.64
    MIXING:  cpu time    0.02: real time    0.02
    --------------------------------------------
      LOOP:  cpu time   45.06: real time   45.19

 eigenvalue-minimisations  :  2163
 total energy-change (2. order) : 0.5412119E+00  (-0.5684657E+01)
 number of electron    1543.9999979 magnetization 
 augmentation part      115.1824732 magnetization 

 Broyden mixing:
  rms(total) = 0.19877E+01    rms(broyden)= 0.19871E+01
  rms(prec ) = 0.20662E+01
  weight for this iteration     100.00

 eigenvalues of (default mixing * dielectric matrix)
  average eigenvalue GAMMA=   1.7160
  1.1664  2.2656

 Free energy of the ion-electron system (eV)
  ---------------------------------------------------
  alpha Z        PSCENC =      1469.61440463
  Ewald energy   TEWEN  =    -12241.45600812
  -Hartree energ DENC   =    -76865.08162104
  -exchange      EXHF   =         0.00000000
  -V(xc)+E(xc)   XCENC  =      4801.52276413
  PAW double counting   =     63272.12782533   -61995.94071258
  entropy T*S    EENTRO =        -0.00000000
  eigenvalues    EBANDS =    -14348.52043521
  atomic energy  EATOM  =     93632.00881969
  ---------------------------------------------------
  free energy    TOTEN  =     -2275.72496317 eV

  energy without entropy =    -2275.72496317  energy(sigma->0) =    -2275.72496317


--------------------------------------------------------------------------------------------------------




----------------------------------------- Iteration    1(  15)  ---------------------------------------


    POTLOK:  cpu time    0.72: real time    0.72
    SETDIJ:  cpu time    0.03: real time    0.03
    EDDIAG:  cpu time    7.82: real time    7.87
  RMM-DIIS:  cpu time   32.45: real time   32.57
    ORTHCH:  cpu time    1.42: real time    1.42
       DOS:  cpu time    0.00: real time    0.00
    CHARGE:  cpu time    2.62: real time    2.63
    MIXING:  cpu time    0.02: real time    0.02
    --------------------------------------------
      LOOP:  cpu time   45.08: real time   45.27

 eigenvalue-minimisations  :  2160
 total energy-change (2. order) : 0.3829957E+00  (-0.1119624E+01)
 number of electron    1543.9999979 magnetization 
 augmentation part      116.6184302 magnetization 

 Broyden mixing:
  rms(total) = 0.44322E+00    rms(broyden)= 0.44315E+00
  rms(prec ) = 0.49050E+00
  weight for this iteration     100.00

 eigenvalues of (default mixing * dielectric matrix)
  average eigenvalue GAMMA=   1.5703
  2.5599  1.0755  1.0755

 Free energy of the ion-electron system (eV)
  ---------------------------------------------------
  alpha Z        PSCENC =      1469.61440463
  Ewald energy   TEWEN  =    -12241.45600812
  -Hartree energ DENC   =    -77086.69250063
  -exchange      EXHF   =         0.00000000
  -V(xc)+E(xc)   XCENC  =      4810.41147201
  PAW double counting   =     65328.97326016   -64048.52589951
  entropy T*S    EENTRO =        -0.00000000
  eigenvalues    EBANDS =    -14139.67551573
  atomic energy  EATOM  =     93632.00881969
  ---------------------------------------------------
  free energy    TOTEN  =     -2275.34196751 eV

  energy without entropy =    -2275.34196751  energy(sigma->0) =    -2275.34196751


--------------------------------------------------------------------------------------------------------




----------------------------------------- Iteration    1(  16)  ---------------------------------------


    POTLOK:  cpu time    0.72: real time    0.73
    SETDIJ:  cpu time    0.03: real time    0.03
    EDDIAG:  cpu time    7.86: real time    7.88
  RMM-DIIS:  cpu time   32.25: real time   32.34
    ORTHCH:  cpu time    1.43: real time    1.43
[...]
     15.08873      1.67949      1.81620        -0.004016      0.003637      0.007605
     15.23760      6.30289      1.84826        -0.004025     -0.003305      0.010118
     10.86630      6.10637      1.92101        -0.003461      0.031712     -0.011487
     12.34698      8.60451     13.15383         0.005596     -0.001227      0.019316
     12.31758      4.05357     13.17099         0.009076      0.001462      0.009426
     16.39081      3.94324     13.19314         0.004962      0.001647      0.003070
     12.10251     12.02961      1.81464         0.007245     -0.010087      0.009924
     12.21940     16.51027      1.87018        -0.012502      0.006546      0.014400
     16.48778     16.40170      1.68885         0.000822     -0.008245      0.001546
     14.99161     18.90737     13.12953         0.013737     -0.008291      0.014636
     15.06642     14.12987     13.16242        -0.010230     -0.000790      0.027115
     10.87030     14.31949     13.14953         0.001359     -0.025420      0.004506
     13.65557      5.37072     11.30272         0.000822      0.001250     -0.002047
     13.68056     15.59369     11.45726         0.000860      0.002766     -0.001457
     13.59631      5.04092      0.21672        -0.002045      0.008050     -0.007448
     13.63901     15.26831      0.01926         0.001495     -0.006779     -0.000773
      9.08075      8.10246      1.86525         0.006474      0.001414      0.006499
      9.09505      4.11883      1.97798        -0.003071      0.000133      0.002232
      9.03997     12.37487     13.08567         0.009696     -0.015005     -0.014814
      9.07607     16.29939     13.28842         0.008559      0.011578      0.004214
      6.82343     12.01391      7.09328         0.015691     -0.008708      0.000689
      4.28767     12.75570      7.45073         0.011453     -0.027330      0.007287
      6.81064     16.68166      7.03602         0.008571      0.009312     -0.011180
      2.18188     18.69901     10.83660        -0.009066      0.007089      0.003581
      4.65506     17.96175     11.54059         0.003393     -0.012169     -0.009425
      2.14043     14.37399     10.85338        -0.006952      0.010360      0.014821
      2.19969      1.73554      4.38488         0.000407     -0.009175     -0.013274
      4.74512      2.43571      4.10697         0.002894      0.006725      0.008762
      2.37209      6.41757      4.49874         0.011168      0.025820      0.000446
      6.77449      8.35251      8.12772         0.001634     -0.000696     -0.004591
      4.20916      7.70947      7.58667        -0.003598     -0.007893     -0.027638
      6.83257      4.27130      8.20893         0.010020     -0.001925      0.000052
      2.12884     18.84904      8.17450         0.000021      0.006175      0.000413
      4.60261     18.02720      7.56516        -0.004312      0.014169     -0.012696
      2.23403     14.23716      8.18141         0.011740      0.008723     -0.007051
      6.75044     12.23598      4.42111         0.007545      0.000676      0.011264
      4.16814     12.74424      3.91659         0.006280     -0.009386      0.000012
      6.86641     16.44598      4.38046        -0.009936      0.005026     -0.006310
      6.80403      8.41225     10.86691         0.012965     -0.012633      0.014739
      4.25535      7.71546     11.40878         0.000352     -0.001008      0.003414
      6.78648      4.23970     10.78895         0.021351     -0.009129     -0.025875
      2.32544      2.00238      7.04959        -0.017041      0.006299     -0.023376
      4.90395      2.51605      7.64069         0.013704     -0.018457      0.001037
      1.97225      6.22839      7.09233        -0.011397      0.021075      0.018199
      4.91168     10.22674      7.61132         0.007205      0.016889     -0.005550
      4.03096     20.46501      3.69399        -0.018993      0.015427     -0.002135
      4.06058      0.05545      7.62581        -0.002661     -0.015412      0.006499
      5.04115     10.29891      3.75639        -0.000249     -0.030833      0.008244
      5.77561     11.90867      9.50511        -0.000834      0.003468      0.012241
      5.94275     16.83020      9.50262        -0.009730      0.001492     -0.024533
      1.72005     16.53528      9.37853        -0.003988      0.011000     -0.005809
      2.98900     19.06631      5.71899         0.006584     -0.015019      0.000365
      3.14798     14.41288      5.72453        -0.000369      0.004280     -0.009319
      7.31419     14.33481      5.93282        -0.004289      0.005135     -0.003358
      3.16769      1.74812      9.50515         0.006699     -0.004581     -0.009703
      2.96074      6.38188      9.51349        -0.009719     -0.002041      0.002856
      7.99113      6.25241      9.53785         0.006045      0.008169     -0.000505
      5.81999      8.61707      5.68161         0.006604     -0.007408     -0.032945
      5.96231      4.09206      5.76249         0.004590      0.008825      0.003137
      1.73310      4.07207      5.53595        -0.012059     -0.007041     -0.009295
      4.59854     15.37471      7.73581         0.002938     -0.000938      0.004222
      4.54955     15.34785      3.65753         0.014374      0.009080      0.001748
      4.33491      5.08683      7.64093         0.021531      0.008615      0.009172
      4.55614      5.08173      3.75850         0.001505     -0.010653      0.001616
     18.16915     18.49940      9.54063         0.006439      0.000109      0.016313
     18.20275     14.52820      9.42354         0.015634      0.001120      0.003703
      0.00897      2.03943      5.78064         0.008146      0.007933      0.001258
     18.21250      6.07464      5.44683         0.022694     -0.008131      0.003695
     15.90893      1.98718      6.89070        -0.000523     -0.002633     -0.010050
     13.36910      2.52139      7.50377        -0.010669     -0.015547      0.015194
     16.11803      5.96035      7.03468         0.013408     -0.001690     -0.017655
     11.82168      8.31461     10.60703         0.002672      0.009423     -0.000282
     14.30320      7.94909     11.46785        -0.005008      0.018404      0.012142
     11.54208      3.88801     10.66450        -0.002274     -0.007620     -0.001648
     11.24164     12.25633      4.26126        -0.012969      0.002637      0.014130
     13.78125     12.88322      3.68557        -0.024860     -0.014236      0.004690
     11.24598     16.37772      4.27762        -0.006530     -0.001138      0.006817
     16.07226     18.80402      7.98266        -0.000670      0.013082     -0.027476
     13.54965     18.03240      7.65128        -0.018430     -0.000920      0.010218
     15.97452     14.15643      8.08206        -0.010694     -0.002810      0.001376
     11.64519      8.07156      7.97423        -0.015355     -0.007731     -0.023058
     14.17357      7.73408      7.19117        -0.018970      0.025808     -0.030448
     11.27682      4.04836      8.00673        -0.014507     -0.010775      0.001095
     16.13681      1.63645      4.24150         0.018700      0.013583     -0.003037
     13.67509      2.60214      3.87722         0.018832      0.008181      0.005159
     15.87203      6.41674      4.40613        -0.004793      0.023585     -0.019613
     15.80765     18.65484     10.65142        -0.008942     -0.014987     -0.003291
     13.23892     18.18983     11.24159        -0.005297      0.003940      0.005798
     15.93706     14.37651     10.73169         0.010570     -0.002999      0.011824
     11.34399     11.92161      6.90606        -0.005993      0.023569      0.008416
     13.83439     12.72142      7.47546        -0.004646     -0.002998      0.002674
     11.42417     16.65957      6.91775        -0.019447      0.000670      0.004210
     14.16470      0.04179      7.44627        -0.011083     -0.026886     -0.010324
     13.06703     10.37934      3.69078         0.008673      0.016146     -0.003703
     13.25442     10.16476      7.46044        -0.004012     -0.001119      0.002693
     14.12094      0.01570      3.67074        -0.011569     -0.020262     -0.003573
     15.10441      1.67442      9.34785        -0.002119      0.013376     -0.001126
     15.09662      6.51772      9.37004        -0.008253     -0.013232      0.017014
     10.77931      6.15986      9.54611         0.005806      0.001067      0.018715
     12.30724      8.59744      5.51059        -0.007408     -0.007340     -0.024642
     12.29357      4.04483      5.60612         0.003407     -0.009304      0.018321
     16.53372      4.01132      5.28086        -0.010223     -0.000300     -0.003622
     12.23893     11.72826      9.36007        -0.011306      0.022236      0.010488
     12.25322     16.53113      9.40437        -0.001763     -0.003330      0.000555
     16.41706     16.50425      9.22357        -0.006586      0.016847      0.003557
     15.00124     18.87709      5.57105         0.020678     -0.011707      0.003956
     15.09539     14.13380      5.62591        -0.011330     -0.004034      0.026293
     10.81346     14.30225      5.89500         0.001653     -0.017730     -0.002367
     13.59664      5.26595      3.66282        -0.002484      0.003495     -0.009721
     13.74071     15.53886      3.83629        -0.007954      0.009799     -0.001034
     13.65012      5.15665      7.61972         0.009621     -0.019248     -0.001635
     13.68061     15.37500      7.49764        -0.006294      0.001814      0.009129
      9.48619      8.56911      9.43000        -0.008952      0.014404      0.000147
      9.18587      3.92190      9.54811        -0.015032     -0.002382      0.008842
      9.04056     12.30913      5.70599         0.013097      0.011739     -0.019781
      9.08475     16.33293      5.77131         0.024811      0.007731      0.000515
      5.56720     11.79381      0.39169        -0.012185      0.012276      0.002562
      5.48912     16.69771      0.41784        -0.006469      0.001344      0.000423
      3.48644     19.06317     11.72948        -0.001439      0.000192      0.004531
      3.51801     14.20923     11.69363        -0.007787      0.010244      0.004891
      3.56366      1.47948      3.53767        -0.006750     -0.005958     -0.008797
      3.61206      6.36892      3.46581        -0.011185     -0.009207     -0.000761
      5.48244      8.73519     14.89783        -0.013734      0.002760     -0.004604
      5.51850      3.95448     14.80088        -0.004669     -0.009248     -0.006692
      3.45777     19.09385     14.83620        -0.006271     -0.002790      0.002142
      3.61533     14.16633     14.80308        -0.008567      0.010720      0.003098
      5.46197     11.84826      3.51269        -0.005856      0.010328      0.000086
      5.51189     16.64713      3.51720        -0.006217     -0.002248     -0.002318
      5.50768      8.75993     11.74412        -0.002956     -0.001466     -0.003307
      5.47882      3.96343     11.70789        -0.005460     -0.005239     -0.001184
      3.58992      1.54721      0.41556        -0.005049     -0.006053     -0.005371
      3.49581      6.38278      0.43988        -0.009177     -0.007083     -0.008812
      1.47689     18.04572      1.93168        -0.006287     -0.004962     -0.004727
      1.51090     14.82814      1.89498         0.001946      0.001888     -0.000559
      7.47432     12.73840     13.24442        -0.008036      0.007381      0.001247
      7.50272     15.94852     13.28675        -0.001476      0.010498     -0.002245
      7.52196      7.73698      1.99705        -0.003371     -0.005606     -0.006304
      7.53504      4.53366      2.01114         0.007948     -0.013127     -0.005127
      1.58986      2.44016     13.29307        -0.009881     -0.003900     -0.000428
      1.46033      5.63476     13.33113        -0.012488     -0.010814     -0.003407
     14.62872      1.43907      0.27436         0.003037     -0.003401     -0.009298
     14.58353      6.31921      0.35804         0.011039     -0.018729      0.002982
     12.93309      8.81318     11.65242         0.004621     -0.003825     -0.010203
     12.83033      4.00961     11.63159         0.009219     -0.006539      0.002268
     12.54674     11.88280      3.36936         0.011648      0.010989      0.004987
     12.60850     16.63317      3.43733         0.002398      0.001410     -0.001176
     14.68193     18.98652     14.72154         0.004084      0.003370     -0.006985
     14.61602     14.03433     14.71433         0.010908      0.016398     -0.005657
     12.59265      8.68873     14.75087         0.011262     -0.016437     -0.005675
     12.64982      3.84657     14.74323         0.006646     -0.004054     -0.002143
     14.74931      1.48934      3.39377         0.004707      0.003724     -0.007436
     14.64562      6.46640      3.35672         0.013218     -0.014759      0.000842
     14.54665     19.08996     11.57649         0.001346      0.004996      0.000787
     14.59076     14.25767     11.62109         0.004827      0.013786     -0.000385
     12.55851     11.73013      0.28516         0.011936      0.005789     -0.006727
     12.71033     16.55835      0.32759         0.006184      0.008109     -0.006571
     10.64096      7.71123      1.81682         0.006510     -0.015337     -0.001653
     10.66481      4.49549      1.87281         0.010664     -0.013474     -0.003689
     16.69827      2.35086     13.15792         0.001035     -0.004450     -0.000920
     16.61012      5.54882     13.16514        -0.006621     -0.012408      0.003726
     16.61888     18.01294      1.81460         0.005468      0.003246     -0.009269
     16.65858     14.79071      1.81090         0.007910      0.007386      0.000928
     10.61899     12.71605     13.10509         0.000819      0.012396     -0.009354
     10.64148     15.92597     13.17882         0.003601      0.012465     -0.002280
      5.45126     11.72859      7.92427        -0.006470      0.006524     -0.004975
      5.47680     16.72210      7.95449        -0.005932     -0.005733      0.004263
      3.49305     19.00499      4.17741        -0.010336     -0.006769     -0.007053
      3.50715     14.20688      4.15616        -0.002769      0.003573     -0.002159
      3.61243      1.51437     11.05045        -0.002793     -0.004840      0.006185
      3.35252      6.39419     11.10664        -0.008364     -0.003338      0.004715
      5.47985      8.73723      7.26391        -0.001559     -0.002310      0.005308
      5.51254      3.98017      7.31182        -0.000456     -0.001300      0.003674
      3.45096     19.12112      7.27329        -0.004469     -0.005985     -0.000657
      3.57744     14.19921      7.27514        -0.010605      0.006585     -0.001073
      5.37890     11.76196     11.07490        -0.008776      0.006673     -0.000838
      5.49737     16.66624     11.05079        -0.009667      0.004190      0.001684
      5.55925      8.79894      4.09884        -0.008870      0.003258      0.007443
      5.51780      3.85834      4.21814        -0.003862     -0.009028      0.003101
      3.60869      1.58047      7.94957         0.000053     -0.003764      0.004932
      3.33943      6.37096      7.91714        -0.002271     -0.003129     -0.000223
      1.48578     18.13660      9.48347        -0.005204     -0.006005      0.005898
      1.51081     14.92547      9.46109        -0.003563     -0.000864      0.002794
      7.47966     12.72589      5.78740        -0.010695      0.009095     -0.003429
      7.51911     15.93832      5.77822        -0.009350      0.005213     -0.002129
      7.75376      4.67093      9.52239         0.000901     -0.003531      0.000346
      1.56676      2.46234      5.69089        -0.008954     -0.001514      0.001427
      1.49989      5.67264      5.63099        -0.015142      0.002921      0.003216
     14.63483      1.55678      7.79720         0.004854      0.000411      0.002706
     14.74021      6.34400      7.80436         0.008977     -0.007332     -0.002338
     12.66677      8.82716      3.94702         0.013792     -0.011630      0.002051
     12.76521      3.93201      4.06158         0.005611     -0.001640     -0.001188
     12.64858     11.79105     10.92652         0.015356      0.004669      0.001733
     12.61008     16.71684     10.97378         0.006976      0.008560      0.010475
     14.69355     19.06624      7.15360         0.009101      0.005917      0.003040
     14.63027     14.09775      7.17616         0.010535      0.006851      0.000243
     12.83160      8.64815      7.04732         0.003702     -0.012179      0.011721
     12.66191      3.94538      7.18005         0.008339     -0.000161     -0.002710
     14.78913      1.55203     10.93319         0.007643     -0.002758      0.004058
     14.78926      6.48586     10.95553         0.001668     -0.004826     -0.000388
     14.52307     19.01285      4.02211         0.010328      0.004145     -0.001001
     14.63080     14.20260      4.07756         0.014333      0.011142      0.002273
     12.67061     11.64164      7.80023         0.010182      0.001047      0.003940
     12.73994     16.64470      7.86195         0.008030      0.005600      0.009094
     10.88480      7.78582      9.38949         0.002376     -0.004175      0.001634
     10.69927      4.54895      9.44247         0.004758     -0.001644      0.002450
     16.70656      2.41916      5.55055        -0.005280      0.004192     -0.005599
     16.67086      5.60656      5.55037        -0.005145     -0.007598     -0.000267
     16.61121     18.10984      9.35284        -0.006878     -0.003970      0.005016
     16.63273     14.90001      9.36552         0.002132      0.005289      0.005308
     10.61056     12.70247      5.69003        -0.005032      0.005892      0.006547
     10.64268     15.90760      5.71120        -0.007446      0.008586      0.005936
      7.85990      8.02560      9.49388         0.004052     -0.001977     -0.000655
      5.60039      6.46469      9.50951         0.003659     -0.000453      0.000232
 -----------------------------------------------------------------------------------
    total drift:                               -0.009200      0.018175      0.134196


--------------------------------------------------------------------------------------------------------



  FREE ENERGIE OF THE ION-ELECTRON SYSTEM (eV)
  ---------------------------------------------------
  free  energy   TOTEN  =     -2274.93568601 eV

  energy  without entropy=    -2274.93568601  energy(sigma->0) =    -2274.93568601
 


--------------------------------------------------------------------------------------------------------


    POTLOK:  cpu time    0.75: real time    0.75


--------------------------------------------------------------------------------------------------------


     LOOP+:  cpu time  918.22: real time  922.20
    4ORBIT:  cpu time    0.00: real time    0.00

 total amount of memory used by VASP on root node   211714. kBytes
========================================================================

   base      :      30000. kBytes
   nonlr-proj:      39174. kBytes
   fftplans  :      24849. kBytes
   grid      :      49917. kBytes
   one-center:        154. kBytes
   wavefun   :      67620. kBytes
 
  
  
 General timing and accounting informations for this job:
 ========================================================
  
                  Total CPU time used (sec):      933.559
                            User time (sec):      927.894
                          System time (sec):        5.665
                         Elapsed time (sec):      938.243
  
                   Maximum memory used (kb):      293928.
                   Average memory used (kb):           0.
  
                          Minor page faults:       208489
                          Major page faults:            0
                 Voluntary context switches:          910
